 Entering Gaussian System, Link 0=g09
 Input=vdw_rscan_hgc.com
 Output=vdw_rscan_hgc.log
 AtFile(1): /usr/local/share/g09/basis/AVTZ_HgBr.gbs
            Hg
            S 10 1.00
            0.98305800E+02 0.10330000E-02
            0.19640600E+02 -0.10638200E+00
            0.12339700E+02 0.53207300E+00
            0.77478200E+01 -0.52232400E+00
            0.48629100E+01 -0.53732100E+00
            0.15771900E+01 0.88478800E+00
            0.75292600E+00 0.51383400E+00
            0.23511200E+00 0.29407000E-01
            0.10396800E+00 -0.61590000E-02
            0.43400000E-01 0.13840000E-02
            S 10 1.00
            0.98305800E+02 -0.35600000E-03
            0.19640600E+02 0.37909000E-01
            0.12339700E+02 -0.20001300E+00
            0.77478200E+01 0.22409300E+00
            0.48629100E+01 0.17937400E+00
            0.15771900E+01 -0.45083300E+00
            0.75292600E+00 -0.33905500E+00
            0.23511200E+00 0.29341400E+00
            0.10396800E+00 0.64462800E+00
            0.43400000E-01 0.29162600E+00
            S 10 1.00
            0.98305800E+02 -0.21700000E-03
            0.19640600E+02 -0.44067000E-01
            0.12339700E+02 0.28769500E+00
            0.77478200E+01 -0.18947600E+00
            0.48629100E+01 -0.78070400E+00
            0.15771900E+01 0.21756040E+01
            0.75292600E+00 -0.88658400E+00
            0.23511200E+00 -0.18749170E+01
            0.10396800E+00 0.12470530E+01
            0.43400000E-01 0.35235100E+00
            S 10 1.00
            0.98305800E+02 -0.20930000E-02
            0.19640600E+02 0.15578300E+00
            0.12339700E+02 -0.79514100E+00
            0.77478200E+01 0.99705400E+00
            0.48629100E+01 0.59286100E+00
            0.15771900E+01 -0.44071970E+01
            0.75292600E+00 0.52898370E+01
            0.23511200E+00 -0.28866330E+01
            0.10396800E+00 0.31587400E+00
            0.43400000E-01 0.82261000E+00
            S 1 1.00
            0.43400000E-01 0.10000000E+01
            S 1 1.00
            0.18100000E-01 0.10000000E+01
            P 9 1.00
            0.21406500E+02 -0.12837000E-01
            0.13392900E+02 0.86531000E-01
            0.65102100E+01 -0.30804100E+00
            0.18222200E+01 0.53279400E+00
            0.92650700E+00 0.48220700E+00
            0.45508200E+00 0.15469500E+00
            0.19276000E+00 0.13201000E-01
            0.78689000E-01 0.58500000E-03
            0.31729000E-01 0.20000000E-04
            P 9 1.00
            0.21406500E+02 0.26690000E-02
            0.13392900E+02 -0.21877000E-01
            0.65102100E+01 0.86539000E-01
            0.18222200E+01 -0.18476800E+00
            0.92650700E+00 -0.17739500E+00
            0.45508200E+00 0.97700000E-03
            0.19276000E+00 0.35360300E+00
            0.78689000E-01 0.54358200E+00
            0.31729000E-01 0.24553900E+00
            P 9 1.00
            0.21406500E+02 0.61400000E-02
            0.13392900E+02 -0.48056000E-01
            0.65102100E+01 0.18910600E+00
            0.18222200E+01 -0.43811900E+00
            0.92650700E+00 -0.43219300E+00
            0.45508200E+00 0.45705700E+00
            0.19276000E+00 0.69535700E+00
            0.78689000E-01 0.14201600E+00
            0.31729000E-01 0.20300000E-02
            P 9 1.00
            0.21406500E+02 0.13014000E-01
            0.13392900E+02 -0.89097000E-01
            0.65102100E+01 0.34802000E+00
            0.18222200E+01 -0.12184470E+01
            0.92650700E+00 0.12322800E+00
            0.45508200E+00 0.16284380E+01
            0.19276000E+00 -0.78245100E+00
            0.78689000E-01 -0.51125400E+00
            0.31729000E-01 0.16511000E-01
            P 1 1.00
            0.31729000E-01 0.10000000E+01
            P 1 1.00
            0.12800000E-01 0.10000000E+01
            D 8 1.00
            0.86988100E+02 0.58000000E-04
            0.11991300E+02 0.12779000E-01
            0.69364800E+01 -0.68963000E-01
            0.20864100E+01 0.24156300E+00
            0.10766400E+01 0.38785800E+00
            0.53115300E+00 0.34544100E+00
            0.24880800E+00 0.19150900E+00
            0.10817000E+00 0.46502000E-01
            D 8 1.00
            0.86988100E+02 0.50000000E-04
            0.11991300E+02 0.19246000E-01
            0.69364800E+01 -0.10348700E+00
            0.20864100E+01 0.48476900E+00
            0.10766400E+01 0.50695100E+00
            0.53115300E+00 -0.36257200E+00
            0.24880800E+00 -0.57298000E+00
            0.10817000E+00 -0.16663700E+00
            D 8 1.00
            0.86988100E+02 -0.43000000E-04
            0.11991300E+02 0.33760000E-01
            0.69364800E+01 -0.17461000E+00
            0.20864100E+01 0.12017020E+01
            0.10766400E+01 -0.50309300E+00
            0.53115300E+00 -0.11299990E+01
            0.24880800E+00 0.77493100E+00
            0.10817000E+00 0.36553400E+00
            D 1 1.00
            0.10817000E+00 0.10000000E+01
            D 1 1.00
            0.47000000E-01 0.10000000E+01
            F 1 1.00
            0.15814000E+01 0.10000000E+01
            F 1 1.00
            0.54230000E+00 0.10000000E+01
            F 1 1.00
            0.21820000E+00 0.10000000E+01
            G 1 1.00
            0.13737000E+01 0.10000000E+01
            G 1 1.00
            0.63610000E+00 0.10000000E+01
            ****
            Br
            S 10 1.00
            9.65939E+03 3.71000E-04
            1.45596E+03 2.57100E-03
            3.25914E+02 8.48500E-03
            4.65657E+01 7.82220E-02
            1.82469E+01 -3.97149E-01
            3.80201E+00 6.85864E-01
            1.78632E+00 4.86819E-01
            6.02714E-01 3.49130E-02
            2.84014E-01 -6.57300E-03
            1.20271E-01 1.64200E-03
            S 10 1.00
            9.65939E+03 -1.52000E-04
            1.45596E+03 -1.00800E-03
            3.25914E+02 -3.60900E-03
            4.65657E+01 -2.78720E-02
            1.82469E+01 1.51317E-01
            3.80201E+00 -3.51497E-01
            1.78632E+00 -4.10703E-01
            6.02714E-01 3.47316E-01
            2.84014E-01 6.75491E-01
            1.20271E-01 2.44008E-01
            S 1 1.00
            6.02714E-01 1.00000E+00
            S 1 1.00
            2.84014E-01 1.00000E+00
            S 1 1.00
            1.20271E-01 1.00000E+00
            S 1 1.00
            4.45000E-02 1.00000E+00
            P 9 1.00
            4.92187E+02 4.72000E-04
            9.23642E+01 5.49400E-03
            2.70718E+01 -8.80300E-02
            7.26539E+00 3.43485E-01
            3.48481E+00 5.10208E-01
            1.64048E+00 2.48631E-01
            6.48570E-01 2.22010E-02
            2.56407E-01 -4.19000E-04
            9.53040E-02 6.56000E-04
            P 9 1.00
            4.92187E+02 -1.58000E-04
            9.23642E+01 -1.34400E-03
            2.70718E+01 2.46160E-02
            7.26539E+00 -1.12532E-01
            3.48481E+00 -1.79775E-01
            1.64048E+00 -7.36610E-02
            6.48570E-01 3.48734E-01
            2.56407E-01 5.57948E-01
            9.53040E-02 2.66456E-01
            P 1 1.00
            7.66600E-01 1.00000E+00
            P 1 1.00
            1.18200E-01 1.00000E+00
            P 1 1.00
            3.96000E-02 1.00000E+00
            D 8 1.00
            3.38996E+02 1.52400E-03
            1.03217E+02 1.56730E-02
            4.23638E+01 7.24000E-02
            1.84356E+01 1.86303E-01
            8.37254E+00 3.23881E-01
            3.80222E+00 3.74534E-01
            1.68677E+00 2.57418E-01
            6.77520E-01 6.80510E-02
            D 1 1.00
            6.77520E-01 1.00000E+00
            D 1 1.00
            2.55300E-01 1.00000E+00
            D 1 1.00
            1.00900E-01 1.00000E+00
            F 1 1.00
            5.60600E-01 1.00000E+00
            F 1 1.00
            2.45400E-01 1.00000E+00
            ****
            
            Hg 0
            ECP60MDF 5 60
            H-Komponente
            1
            2 1.000000 0.000000
            S-H
            2
            2 12.413071 275.774797
            2 6.897913 49.267898
            P-H
            4
            2 11.310320 80.506984
            2 10.210773 161.034824
            2 5.939804 9.083416
            2 5.019755 18.367773
            D-H
            4
            2 8.407895 51.137256
            2 8.214086 76.707459
            2 4.012612 6.561821
            2 3.795398 9.818070
            F-H
            2
            2 3.273106 9.429001
            2 3.208321 12.494856
            G-H
            2
            2 4.485296 -6.338414
            2 4.513200 -8.099863
            Br 0
            ECP10MDF 4 10
            G-Komponente
            1
            2 1.000000 0.000000
            S-G
            3
            2 70.024257 49.962834
            2 31.178412 370.014205
            2 7.156593 10.241439
            P-G
            4
            2 46.773471 99.112244
            2 46.184120 198.253046
            2 21.713858 28.261740
            2 20.941792 56.623366
            D-G
            6
            2 50.698839 -18.605853
            2 50.644764 -27.923280
            2 15.447509 -0.379693
            2 15.500259 -0.780583
            2 2.800391 0.035968
            2 1.077480 0.094397
            F-G
            2
            2 14.465606 -1.091269
            2 21.234065 -2.887691
            
 Initial command:
 /usr/local/share//g09/l1.exe "/scr/lam/Gau-13004.inp" -scrdir="/scr/lam/"
 Entering Link 1 = /usr/local/share//g09/l1.exe PID=     13005.
  
 Copyright (c) 1988,1990,1992,1993,1995,1998,2003,2009,2013,
            Gaussian, Inc.  All Rights Reserved.
  
 This is part of the Gaussian(R) 09 program.  It is based on
 the Gaussian(R) 03 system (copyright 2003, Gaussian, Inc.),
 the Gaussian(R) 98 system (copyright 1998, Gaussian, Inc.),
 the Gaussian(R) 94 system (copyright 1995, Gaussian, Inc.),
 the Gaussian 92(TM) system (copyright 1992, Gaussian, Inc.),
 the Gaussian 90(TM) system (copyright 1990, Gaussian, Inc.),
 the Gaussian 88(TM) system (copyright 1988, Gaussian, Inc.),
 the Gaussian 86(TM) system (copyright 1986, Carnegie Mellon
 University), and the Gaussian 82(TM) system (copyright 1983,
 Carnegie Mellon University). Gaussian is a federally registered
 trademark of Gaussian, Inc.
  
 This software contains proprietary and confidential information,
 including trade secrets, belonging to Gaussian, Inc.
  
 This software is provided under written license and may be
 used, copied, transmitted, or stored only in accord with that
 written license.
  
 The following legend is applicable only to US Government
 contracts under FAR:
  
                    RESTRICTED RIGHTS LEGEND
  
 Use, reproduction and disclosure by the US Government is
 subject to restrictions as set forth in subparagraphs (a)
 and (c) of the Commercial Computer Software - Restricted
 Rights clause in FAR 52.227-19.
  
 Gaussian, Inc.
 340 Quinnipiac St., Bldg. 40, Wallingford CT 06492
  
  
 ---------------------------------------------------------------
 Warning -- This program may not be used in any manner that
 competes with the business of Gaussian, Inc. or will provide
 assistance to any competitor of Gaussian, Inc.  The licensee
 of this program is prohibited from giving any competitor of
 Gaussian, Inc. access to this program.  By using this program,
 the user acknowledges that Gaussian, Inc. is engaged in the
 business of creating and licensing software in the field of
 computational chemistry and represents and warrants to the
 licensee that it is not a competitor of Gaussian, Inc. and that
 it will not use this program in any manner prohibited above.
 ---------------------------------------------------------------
  

 Cite this work as:
 Gaussian 09, Revision D.01,
 M. J. Frisch, G. W. Trucks, H. B. Schlegel, G. E. Scuseria, 
 M. A. Robb, J. R. Cheeseman, G. Scalmani, V. Barone, B. Mennucci, 
 G. A. Petersson, H. Nakatsuji, M. Caricato, X. Li, H. P. Hratchian, 
 A. F. Izmaylov, J. Bloino, G. Zheng, J. L. Sonnenberg, M. Hada, 
 M. Ehara, K. Toyota, R. Fukuda, J. Hasegawa, M. Ishida, T. Nakajima, 
 Y. Honda, O. Kitao, H. Nakai, T. Vreven, J. A. Montgomery, Jr., 
 J. E. Peralta, F. Ogliaro, M. Bearpark, J. J. Heyd, E. Brothers, 
 K. N. Kudin, V. N. Staroverov, T. Keith, R. Kobayashi, J. Normand, 
 K. Raghavachari, A. Rendell, J. C. Burant, S. S. Iyengar, J. Tomasi, 
 M. Cossi, N. Rega, J. M. Millam, M. Klene, J. E. Knox, J. B. Cross, 
 V. Bakken, C. Adamo, J. Jaramillo, R. Gomperts, R. E. Stratmann, 
 O. Yazyev, A. J. Austin, R. Cammi, C. Pomelli, J. W. Ochterski, 
 R. L. Martin, K. Morokuma, V. G. Zakrzewski, G. A. Voth, 
 P. Salvador, J. J. Dannenberg, S. Dapprich, A. D. Daniels, 
 O. Farkas, J. B. Foresman, J. V. Ortiz, J. Cioslowski, 
 and D. J. Fox, Gaussian, Inc., Wallingford CT, 2013.
 
 ******************************************
 Gaussian 09:  EM64L-G09RevD.01 24-Apr-2013
                28-Nov-2018 
 ******************************************
 %chk=vdw_rscan_hgc.chk
 %mem=30gb
 %nproc=4
 Will use up to    4 processors via shared memory.
 ------------------------------------------------------------------
 # MPW1PW91/genecp opt=(calcfc,maxcyc=50,modredundant) geom=connect
 ------------------------------------------------------------------
 1/6=50,10=4,14=-1,18=120,19=15,26=3,38=1,57=2/1,3;
 2/9=110,12=2,17=6,18=5,40=1/2;
 3/5=7,11=2,16=1,17=8,25=1,30=1,71=2,74=-7,140=1/1,2,3;
 4//1;
 5/5=2,38=5/2;
 8/6=4,10=90,11=11/1;
 11/6=1,8=1,9=11,15=111,16=1/1,2,10;
 10/6=1,13=1/2;
 6/7=2,8=2,9=2,10=2,28=1/1;
 7/10=1,18=20,25=1/1,2,3,16;
 1/6=50,10=4,14=-1,18=20,19=15,26=3/3(2);
 2/9=110/2;
 99//99;
 2/9=110/2;
 3/5=7,6=1,11=2,16=1,17=8,25=1,30=1,71=1,74=-7,82=7/1,2,3;
 4/5=5,16=3,69=1/1;
 5/5=2,38=5/2;
 7//1,2,3,16;
 1/6=50,14=-1,18=20,19=15,26=3/3(-5);
 2/9=110/2;
 6/7=2,8=2,9=2,10=2,19=2,28=1/1;
 99/9=1/99;
 -------------------------------------------
 vdw BrHgO---CH2CH2 Scan Hg-C MPW1MPW91/AVTZ
 -------------------------------------------
 Symbolic Z-matrix:
 Charge =  0 Multiplicity = 2
 Br                    1.87632   0.64372  -0.00005 
 Hg                   -0.19044  -0.54942   0.00001 
 O                    -1.85754  -1.60909   0.00006 
 H                    -2.90101   1.51469  -1.22635 
 C                    -2.22269   2.14241  -0.66253 
 H                    -1.55383   2.77685  -1.22999 
 C                    -2.22203   2.14283   0.66253 
 H                    -1.55259   2.77761   1.22894 
 H                    -2.89979   1.51546   1.22744 
 
 Add virtual bond connecting atoms H6         and C5         Dist= 2.05D+00.
 Add virtual bond connecting atoms H8         and C7         Dist= 2.05D+00.
 Add virtual bond connecting atoms C5         and H4         Dist= 2.05D+00.
 Add virtual bond connecting atoms H9         and C7         Dist= 2.05D+00.
 Add virtual bond connecting atoms C7         and C5         Dist= 2.50D+00.
 Add virtual bond connecting atoms O3         and Hg2        Dist= 3.73D+00.
 Add virtual bond connecting atoms Hg2        and Br1        Dist= 4.51D+00.
 The following ModRedundant input section has been read:
 B       2       5 S  30 0.1000                                                
 

 GradGradGradGradGradGradGradGradGradGradGradGradGradGradGradGradGradGrad
 Berny optimization.
 Initialization pass.
                           ----------------------------
                           !    Initial Parameters    !
                           ! (Angstroms and Degrees)  !
 --------------------------                            --------------------------
 ! Name  Definition              Value          Derivative Info.                !
 --------------------------------------------------------------------------------
 ! R1    R(1,2)                  2.3864         calculate D2E/DX2 analytically  !
 ! R2    R(2,3)                  1.9754         calculate D2E/DX2 analytically  !
 ! R3    R(2,5)                  3.4373         Scan                            !
 ! R4    R(4,5)                  1.0826         calculate D2E/DX2 analytically  !
 ! R5    R(5,6)                  1.0825         calculate D2E/DX2 analytically  !
 ! R6    R(5,7)                  1.3251         calculate D2E/DX2 analytically  !
 ! R7    R(7,8)                  1.0825         calculate D2E/DX2 analytically  !
 ! R8    R(7,9)                  1.0826         calculate D2E/DX2 analytically  !
 ! A1    A(1,2,5)               96.9207         calculate D2E/DX2 analytically  !
 ! A2    A(3,2,5)               85.4766         calculate D2E/DX2 analytically  !
 ! A3    A(2,5,4)               90.9599         calculate D2E/DX2 analytically  !
 ! A4    A(2,5,6)              101.2268         calculate D2E/DX2 analytically  !
 ! A5    A(2,5,7)               78.8836         calculate D2E/DX2 analytically  !
 ! A6    A(4,5,6)              116.9962         calculate D2E/DX2 analytically  !
 ! A7    A(4,5,7)              121.4194         calculate D2E/DX2 analytically  !
 ! A8    A(6,5,7)              121.581          calculate D2E/DX2 analytically  !
 ! A9    A(5,7,8)              121.5814         calculate D2E/DX2 analytically  !
 ! A10   A(5,7,9)              121.4195         calculate D2E/DX2 analytically  !
 ! A11   A(8,7,9)              116.9957         calculate D2E/DX2 analytically  !
 ! A12   L(1,2,3,5,-1)         182.3973         calculate D2E/DX2 analytically  !
 ! A13   L(1,2,3,5,-2)         179.5243         calculate D2E/DX2 analytically  !
 ! D1    D(1,2,5,4)            146.7931         calculate D2E/DX2 analytically  !
 ! D2    D(1,2,5,6)             29.0067         calculate D2E/DX2 analytically  !
 ! D3    D(1,2,5,7)            -91.3332         calculate D2E/DX2 analytically  !
 ! D4    D(3,2,5,4)            -32.7312         calculate D2E/DX2 analytically  !
 ! D5    D(3,2,5,6)           -150.5177         calculate D2E/DX2 analytically  !
 ! D6    D(3,2,5,7)             89.1425         calculate D2E/DX2 analytically  !
 ! D7    D(2,5,7,8)             96.4371         calculate D2E/DX2 analytically  !
 ! D8    D(2,5,7,9)            -84.2602         calculate D2E/DX2 analytically  !
 ! D9    D(4,5,7,8)           -179.3033         calculate D2E/DX2 analytically  !
 ! D10   D(4,5,7,9)             -0.0006         calculate D2E/DX2 analytically  !
 ! D11   D(6,5,7,8)             -0.0005         calculate D2E/DX2 analytically  !
 ! D12   D(6,5,7,9)            179.3022         calculate D2E/DX2 analytically  !
 --------------------------------------------------------------------------------
 Trust Radius=3.00D-01 FncErr=1.00D-07 GrdErr=1.00D-06
 Number of optimizations in scan=  31
 Number of steps in this run=     50 maximum allowed number of steps=    100.
 GradGradGradGradGradGradGradGradGradGradGradGradGradGradGradGradGradGrad

                          Input orientation:                          
 ---------------------------------------------------------------------
 Center     Atomic      Atomic             Coordinates (Angstroms)
 Number     Number       Type             X           Y           Z
 ---------------------------------------------------------------------
      1         35           0        1.876316    0.643721   -0.000045
      2         80           0       -0.190440   -0.549420    0.000012
      3          8           0       -1.857541   -1.609087    0.000064
      4          1           0       -2.901014    1.514685   -1.226354
      5          6           0       -2.222694    2.142411   -0.662525
      6          1           0       -1.553832    2.776845   -1.229992
      7          6           0       -2.222027    2.142826    0.662533
      8          1           0       -1.552592    2.777607    1.228936
      9          1           0       -2.899787    1.515460    1.227440
 ---------------------------------------------------------------------
                    Distance matrix (angstroms):
                    1          2          3          4          5
     1  Br   0.000000
     2  Hg   2.386434   0.000000
     3  O    4.360829   1.975378   0.000000
     4  H    5.008522   3.621010   3.514383   0.000000
     5  C    4.414389   3.437290   3.827022   1.082618   0.000000
     6  H    4.222429   3.799446   4.565268   1.846066   1.082544
     7  C    4.413926   3.437218   3.827345   2.103207   1.325058
     8  H    4.221525   3.799318   4.565764   3.072729   2.104789
     9  H    5.007775   3.620894   3.515042   2.453794   2.103209
                    6          7          8          9
     6  H    0.000000
     7  C    2.104784   0.000000
     8  H    2.458928   1.082544   0.000000
     9  H    3.072728   1.082620   1.846064   0.000000
 Stoichiometry    C2H4BrHgO(2)
 Framework group  C1[X(C2H4BrHgO)]
 Deg. of freedom    21
 Full point group                 C1      NOp   1
 Largest Abelian subgroup         C1      NOp   1
 Largest concise Abelian subgroup C1      NOp   1
                         Standard orientation:                         
 ---------------------------------------------------------------------
 Center     Atomic      Atomic             Coordinates (Angstroms)
 Number     Number       Type             X           Y           Z
 ---------------------------------------------------------------------
      1         35           0        1.876316    0.643721   -0.000045
      2         80           0       -0.190440   -0.549420    0.000012
      3          8           0       -1.857541   -1.609087    0.000064
      4          1           0       -2.901014    1.514685   -1.226354
      5          6           0       -2.222694    2.142411   -0.662525
      6          1           0       -1.553832    2.776845   -1.229992
      7          6           0       -2.222027    2.142826    0.662533
      8          1           0       -1.552592    2.777607    1.228936
      9          1           0       -2.899787    1.515460    1.227440
 ---------------------------------------------------------------------
 Rotational constants (GHZ):      1.8388559      1.0076700      0.6800640
 General basis read from cards:  (5D, 7F)
 ======================================================================================================
                                       Pseudopotential Parameters
 ======================================================================================================
  Center     Atomic      Valence      Angular      Power
  Number     Number     Electrons     Momentum     of R      Exponent        Coefficient   SO-Coeffient
 ======================================================================================================
    1         35           25
                                      G and up 
                                                     2        1.0000000        0.00000000    0.00000000
                                      S - G
                                                     2       70.0242570       49.96283400    0.00000000
                                                     2       31.1784120      370.01420500    0.00000000
                                                     2        7.1565930       10.24143900    0.00000000
                                      P - G
                                                     2       46.7734710       99.11224400    0.00000000
                                                     2       46.1841200      198.25304600    0.00000000
                                                     2       21.7138580       28.26174000    0.00000000
                                                     2       20.9417920       56.62336600    0.00000000
                                      D - G
                                                     2       50.6988390      -18.60585300    0.00000000
                                                     2       50.6447640      -27.92328000    0.00000000
                                                     2       15.4475090       -0.37969300    0.00000000
                                                     2       15.5002590       -0.78058300    0.00000000
                                                     2        2.8003910        0.03596800    0.00000000
                                                     2        1.0774800        0.09439700    0.00000000
                                      F - G
                                                     2       14.4656060       -1.09126900    0.00000000
                                                     2       21.2340650       -2.88769100    0.00000000
    2         80           20
                                      H and up 
                                                     2        1.0000000        0.00000000    0.00000000
                                      S - H
                                                     2       12.4130710      275.77479700    0.00000000
                                                     2        6.8979130       49.26789800    0.00000000
                                      P - H
                                                     2       11.3103200       80.50698400    0.00000000
                                                     2       10.2107730      161.03482400    0.00000000
                                                     2        5.9398040        9.08341600    0.00000000
                                                     2        5.0197550       18.36777300    0.00000000
                                      D - H
                                                     2        8.4078950       51.13725600    0.00000000
                                                     2        8.2140860       76.70745900    0.00000000
                                                     2        4.0126120        6.56182100    0.00000000
                                                     2        3.7953980        9.81807000    0.00000000
                                      F - H
                                                     2        3.2731060        9.42900100    0.00000000
                                                     2        3.2083210       12.49485600    0.00000000
                                      G - H
                                                     2        4.4852960       -6.33841400    0.00000000
                                                     2        4.5132000       -8.09986300    0.00000000
    3          8
                                   No pseudopotential on this center.
    4          1
                                   No pseudopotential on this center.
    5          6
                                   No pseudopotential on this center.
    6          1
                                   No pseudopotential on this center.
    7          6
                                   No pseudopotential on this center.
    8          1
                                   No pseudopotential on this center.
    9          1
                                   No pseudopotential on this center.
 ======================================================================================================
 There are   444 symmetry adapted cartesian basis functions of A   symmetry.
 There are   373 symmetry adapted basis functions of A   symmetry.
   373 basis functions,   738 primitive gaussians,   444 cartesian basis functions
    35 alpha electrons       34 beta electrons
       nuclear repulsion energy       324.9143050332 Hartrees.
 NAtoms=    9 NActive=    9 NUniq=    9 SFac= 1.00D+00 NAtFMM=   60 NAOKFM=F Big=F
 Integral buffers will be    131072 words long.
 Raffenetti 2 integral format.
 Two-electron integral symmetry is turned on.
 One-electron integrals computed using PRISM.
   1 Symmetry operations used in ECPInt.
 ECPInt:  NShTT=    6903 NPrTT=   30269 LenC2=    6870 LenP2D=   24778.
 LDataN:  DoStor=T MaxTD1= 9 Len=  602
 NBasis=   373 RedAO= T EigKep=  4.18D-06  NBF=   373
 NBsUse=   373 1.00D-06 EigRej= -1.00D+00 NBFU=   373
 Defaulting to unpruned grid for atomic number  80.
 ExpMin= 1.28D-02 ExpMax= 1.53D+04 ExpMxC= 5.22D+02 IAcc=3 IRadAn=         5 AccDes= 0.00D+00
 Harris functional with IExCor=  908 and IRadAn=       5 diagonalized for initial guess.
 HarFok:  IExCor=  908 AccDes= 0.00D+00 IRadAn=         5 IDoV= 1 UseB2=F ITyADJ=14
 ICtDFT=  3500011 ScaDFX=  1.000000  1.000000  1.000000  1.000000
 Defaulting to unpruned grid for atomic number  80.
 Defaulting to unpruned grid for atomic number  80.
 Defaulting to unpruned grid for atomic number  80.
 Defaulting to unpruned grid for atomic number  80.
 FoFCou: FMM=F IPFlag=           0 FMFlag=      100000 FMFlg1=           0
         NFxFlg=           0 DoJE=T BraDBF=F KetDBF=T FulRan=T
         wScrn=  0.000000 ICntrl=     500 IOpCl=  0 I1Cent=   200000004 NGrid=           0
         NMat0=    1 NMatS0=      1 NMatT0=    0 NMatD0=    1 NMtDS0=    0 NMtDT0=    0
 Petite list used in FoFCou.
 Initial guess <Sx>= 0.0000 <Sy>= 0.0000 <Sz>= 0.5000 <S**2>= 0.7500 S= 0.5000
 Requested convergence on RMS density matrix=1.00D-08 within 128 cycles.
 Requested convergence on MAX density matrix=1.00D-06.
 Requested convergence on             energy=1.00D-06.
 No special actions if energy rises.
 Defaulting to unpruned grid for atomic number  80.
 Defaulting to unpruned grid for atomic number  80.
 Defaulting to unpruned grid for atomic number  80.
 Defaulting to unpruned grid for atomic number  80.
 EnCoef did   100 forward-backward iterations
 Restarting incremental Fock formation.
 SCF Done:  E(UmPW1PW91) =  -724.289703926     A.U. after   29 cycles
            NFock= 29  Conv=0.15D-08     -V/T= 2.4518
 <Sx>= 0.0000 <Sy>= 0.0000 <Sz>= 0.5000 <S**2>= 0.7568 S= 0.5034
 <L.S>= 0.000000000000E+00
 Annihilation of the first spin contaminant:
 S**2 before annihilation     0.7568,   after     0.7500
 DoSCS=F DFT=T ScalE2(SS,OS)=  1.000000  1.000000
 Range of M.O.s used for correlation:     1   373
 NBasis=   373 NAE=    35 NBE=    34 NFC=     0 NFV=     0
 NROrb=    373 NOA=    35 NOB=    34 NVA=   338 NVB=   339

 **** Warning!!: The largest alpha MO coefficient is  0.85141998D+02


 **** Warning!!: The largest beta MO coefficient is  0.76576176D+02

   1 Symmetry operations used in ECPInt.
 ECPInt:  NShTT=    6903 NPrTT=   30269 LenC2=    6870 LenP2D=   24778.
 LDataN:  DoStor=T MaxTD1=10 Len=  848
 Symmetrizing basis deriv contribution to polar:
 IMax=3 JMax=2 DiffMx= 0.00D+00
 G2DrvN: will do    10 centers at a time, making    1 passes.
 Calling FoFCou, ICntrl=  3107 FMM=F I1Cent=   0 AccDes= 0.00D+00.
 Defaulting to unpruned grid for atomic number  80.
 Defaulting to unpruned grid for atomic number  80.
 Defaulting to unpruned grid for atomic number  80.
 Defaulting to unpruned grid for atomic number  80.
 End of G2Drv F.D. properties file   721 does not exist.
 End of G2Drv F.D. properties file   722 does not exist.
 End of G2Drv F.D. properties file   788 does not exist.
          IDoAtm=111111111
          Differentiating once with respect to nuclear coordinates.
 Defaulting to unpruned grid for atomic number  80.
 Defaulting to unpruned grid for atomic number  80.
 Defaulting to unpruned grid for atomic number  80.
 Defaulting to unpruned grid for atomic number  80.
 Defaulting to unpruned grid for atomic number  80.
          There are    30 degrees of freedom in the 1st order CPHF.  IDoFFX=6 NUNeed=     0.
     24 vectors produced by pass  0 Test12= 7.79D-14 3.33D-09 XBig12= 1.28D-01 1.10D-01.
 AX will form    24 AO Fock derivatives at one time.
     24 vectors produced by pass  1 Test12= 7.79D-14 3.33D-09 XBig12= 2.03D-02 3.29D-02.
     24 vectors produced by pass  2 Test12= 7.79D-14 3.33D-09 XBig12= 1.34D-03 1.56D-02.
     24 vectors produced by pass  3 Test12= 7.79D-14 3.33D-09 XBig12= 4.87D-05 1.63D-03.
     24 vectors produced by pass  4 Test12= 7.79D-14 3.33D-09 XBig12= 1.05D-06 1.76D-04.
     24 vectors produced by pass  5 Test12= 7.79D-14 3.33D-09 XBig12= 1.46D-08 2.24D-05.
     24 vectors produced by pass  6 Test12= 7.79D-14 3.33D-09 XBig12= 1.87D-10 2.50D-06.
     13 vectors produced by pass  7 Test12= 7.79D-14 3.33D-09 XBig12= 2.29D-12 2.49D-07.
      6 vectors produced by pass  8 Test12= 7.79D-14 3.33D-09 XBig12= 8.07D-14 5.97D-08.
      4 vectors produced by pass  9 Test12= 7.79D-14 3.33D-09 XBig12= 4.74D-15 8.38D-09.
      1 vectors produced by pass 10 Test12= 7.79D-14 3.33D-09 XBig12= 1.33D-15 7.89D-09.
 InvSVY:  IOpt=1 It=  1 EMax= 1.55D-15
 Solved reduced A of dimension   192 with    24 vectors.
 End of Minotr F.D. properties file   721 does not exist.
 End of Minotr F.D. properties file   722 does not exist.
 End of Minotr F.D. properties file   788 does not exist.

 **********************************************************************

            Population analysis using the SCF density.

 **********************************************************************

 Orbital symmetries:
 Alpha Orbitals:
       Occupied  (A) (A) (A) (A) (A) (A) (A) (A) (A) (A) (A) (A)
                 (A) (A) (A) (A) (A) (A) (A) (A) (A) (A) (A) (A)
                 (A) (A) (A) (A) (A) (A) (A) (A) (A) (A) (A)
       Virtual   (A) (A) (A) (A) (A) (A) (A) (A) (A) (A) (A) (A)
                 (A) (A) (A) (A) (A) (A) (A) (A) (A) (A) (A) (A)
                 (A) (A) (A) (A) (A) (A) (A) (A) (A) (A) (A) (A)
                 (A) (A) (A) (A) (A) (A) (A) (A) (A) (A) (A) (A)
                 (A) (A) (A) (A) (A) (A) (A) (A) (A) (A) (A) (A)
                 (A) (A) (A) (A) (A) (A) (A) (A) (A) (A) (A) (A)
                 (A) (A) (A) (A) (A) (A) (A) (A) (A) (A) (A) (A)
                 (A) (A) (A) (A) (A) (A) (A) (A) (A) (A) (A) (A)
                 (A) (A) (A) (A) (A) (A) (A) (A) (A) (A) (A) (A)
                 (A) (A) (A) (A) (A) (A) (A) (A) (A) (A) (A) (A)
                 (A) (A) (A) (A) (A) (A) (A) (A) (A) (A) (A) (A)
                 (A) (A) (A) (A) (A) (A) (A) (A) (A) (A) (A) (A)
                 (A) (A) (A) (A) (A) (A) (A) (A) (A) (A) (A) (A)
                 (A) (A) (A) (A) (A) (A) (A) (A) (A) (A) (A) (A)
                 (A) (A) (A) (A) (A) (A) (A) (A) (A) (A) (A) (A)
                 (A) (A) (A) (A) (A) (A) (A) (A) (A) (A) (A) (A)
                 (A) (A) (A) (A) (A) (A) (A) (A) (A) (A) (A) (A)
                 (A) (A) (A) (A) (A) (A) (A) (A) (A) (A) (A) (A)
                 (A) (A) (A) (A) (A) (A) (A) (A) (A) (A) (A) (A)
                 (A) (A) (A) (A) (A) (A) (A) (A) (A) (A) (A) (A)
                 (A) (A) (A) (A) (A) (A) (A) (A) (A) (A) (A) (A)
                 (A) (A) (A) (A) (A) (A) (A) (A) (A) (A) (A) (A)
                 (A) (A) (A) (A) (A) (A) (A) (A) (A) (A) (A) (A)
                 (A) (A) (A) (A) (A) (A) (A) (A) (A) (A) (A) (A)
                 (A) (A) (A) (A) (A) (A) (A) (A) (A) (A) (A) (A)
                 (A) (A) (A) (A) (A) (A) (A) (A) (A) (A) (A) (A)
                 (A) (A) (A) (A) (A) (A) (A) (A) (A) (A) (A) (A)
                 (A) (A) (A) (A) (A) (A) (A) (A) (A) (A) (A) (A)
                 (A) (A)
 Beta  Orbitals:
       Occupied  (A) (A) (A) (A) (A) (A) (A) (A) (A) (A) (A) (A)
                 (A) (A) (A) (A) (A) (A) (A) (A) (A) (A) (A) (A)
                 (A) (A) (A) (A) (A) (A) (A) (A) (A) (A)
       Virtual   (A) (A) (A) (A) (A) (A) (A) (A) (A) (A) (A) (A)
                 (A) (A) (A) (A) (A) (A) (A) (A) (A) (A) (A) (A)
                 (A) (A) (A) (A) (A) (A) (A) (A) (A) (A) (A) (A)
                 (A) (A) (A) (A) (A) (A) (A) (A) (A) (A) (A) (A)
                 (A) (A) (A) (A) (A) (A) (A) (A) (A) (A) (A) (A)
                 (A) (A) (A) (A) (A) (A) (A) (A) (A) (A) (A) (A)
                 (A) (A) (A) (A) (A) (A) (A) (A) (A) (A) (A) (A)
                 (A) (A) (A) (A) (A) (A) (A) (A) (A) (A) (A) (A)
                 (A) (A) (A) (A) (A) (A) (A) (A) (A) (A) (A) (A)
                 (A) (A) (A) (A) (A) (A) (A) (A) (A) (A) (A) (A)
                 (A) (A) (A) (A) (A) (A) (A) (A) (A) (A) (A) (A)
                 (A) (A) (A) (A) (A) (A) (A) (A) (A) (A) (A) (A)
                 (A) (A) (A) (A) (A) (A) (A) (A) (A) (A) (A) (A)
                 (A) (A) (A) (A) (A) (A) (A) (A) (A) (A) (A) (A)
                 (A) (A) (A) (A) (A) (A) (A) (A) (A) (A) (A) (A)
                 (A) (A) (A) (A) (A) (A) (A) (A) (A) (A) (A) (A)
                 (A) (A) (A) (A) (A) (A) (A) (A) (A) (A) (A) (A)
                 (A) (A) (A) (A) (A) (A) (A) (A) (A) (A) (A) (A)
                 (A) (A) (A) (A) (A) (A) (A) (A) (A) (A) (A) (A)
                 (A) (A) (A) (A) (A) (A) (A) (A) (A) (A) (A) (A)
                 (A) (A) (A) (A) (A) (A) (A) (A) (A) (A) (A) (A)
                 (A) (A) (A) (A) (A) (A) (A) (A) (A) (A) (A) (A)
                 (A) (A) (A) (A) (A) (A) (A) (A) (A) (A) (A) (A)
                 (A) (A) (A) (A) (A) (A) (A) (A) (A) (A) (A) (A)
                 (A) (A) (A) (A) (A) (A) (A) (A) (A) (A) (A) (A)
                 (A) (A) (A) (A) (A) (A) (A) (A) (A) (A) (A) (A)
                 (A) (A) (A) (A) (A) (A) (A) (A) (A) (A) (A) (A)
                 (A) (A) (A) (A) (A) (A) (A) (A) (A) (A) (A) (A)
                 (A) (A) (A)
 The electronic state is 2-A.
 Alpha  occ. eigenvalues --  -19.28191 -10.25317 -10.25214  -8.70394  -6.65520
 Alpha  occ. eigenvalues --   -6.64691  -6.64633  -4.59089  -2.69892  -2.69359
 Alpha  occ. eigenvalues --   -2.68953  -2.64795  -2.64582  -2.64540  -2.63896
 Alpha  occ. eigenvalues --   -2.63895  -0.98997  -0.81463  -0.80535  -0.61522
 Alpha  occ. eigenvalues --   -0.54253  -0.53591  -0.52648  -0.50807  -0.50782
 Alpha  occ. eigenvalues --   -0.50226  -0.45221  -0.40859  -0.39376  -0.38325
 Alpha  occ. eigenvalues --   -0.36163  -0.34447  -0.31016  -0.30848  -0.30172
 Alpha virt. eigenvalues --   -0.07155  -0.03658  -0.00385  -0.00284   0.00383
 Alpha virt. eigenvalues --    0.00821   0.02193   0.02568   0.03251   0.03324
 Alpha virt. eigenvalues --    0.03512   0.04395   0.05350   0.06611   0.07255
 Alpha virt. eigenvalues --    0.07934   0.08844   0.09293   0.09354   0.09881
 Alpha virt. eigenvalues --    0.10597   0.10862   0.11456   0.11822   0.12645
 Alpha virt. eigenvalues --    0.12724   0.13089   0.13710   0.14226   0.14303
 Alpha virt. eigenvalues --    0.15602   0.15964   0.17358   0.19010   0.19068
 Alpha virt. eigenvalues --    0.19311   0.20410   0.20800   0.21071   0.23502
 Alpha virt. eigenvalues --    0.23692   0.24753   0.26127   0.26417   0.27401
 Alpha virt. eigenvalues --    0.28091   0.28506   0.29408   0.29544   0.29842
 Alpha virt. eigenvalues --    0.30654   0.30926   0.31870   0.32793   0.33257
 Alpha virt. eigenvalues --    0.34725   0.34979   0.35406   0.36678   0.36955
 Alpha virt. eigenvalues --    0.38088   0.39019   0.39949   0.40963   0.42731
 Alpha virt. eigenvalues --    0.42810   0.43168   0.44078   0.45720   0.46492
 Alpha virt. eigenvalues --    0.47451   0.49223   0.49480   0.51483   0.52917
 Alpha virt. eigenvalues --    0.54586   0.54720   0.55949   0.55989   0.57980
 Alpha virt. eigenvalues --    0.58401   0.58713   0.59972   0.61491   0.62364
 Alpha virt. eigenvalues --    0.62971   0.63263   0.63525   0.64740   0.66305
 Alpha virt. eigenvalues --    0.66313   0.68765   0.69766   0.70173   0.71196
 Alpha virt. eigenvalues --    0.72125   0.72983   0.74414   0.74615   0.75465
 Alpha virt. eigenvalues --    0.75776   0.76657   0.78315   0.78809   0.80095
 Alpha virt. eigenvalues --    0.80753   0.81300   0.83808   0.84753   0.85539
 Alpha virt. eigenvalues --    0.86388   0.87438   0.89373   0.89416   0.89693
 Alpha virt. eigenvalues --    0.90713   0.92525   0.93210   0.94069   0.95885
 Alpha virt. eigenvalues --    0.96904   0.97117   0.98747   0.98842   0.99272
 Alpha virt. eigenvalues --    1.00096   1.01021   1.01044   1.03964   1.04049
 Alpha virt. eigenvalues --    1.05751   1.07693   1.09798   1.11245   1.11278
 Alpha virt. eigenvalues --    1.12226   1.14177   1.17568   1.17956   1.18403
 Alpha virt. eigenvalues --    1.20215   1.21123   1.22746   1.28277   1.29559
 Alpha virt. eigenvalues --    1.30689   1.32506   1.34890   1.35826   1.35955
 Alpha virt. eigenvalues --    1.39601   1.42351   1.42554   1.42852   1.45327
 Alpha virt. eigenvalues --    1.46568   1.50510   1.52981   1.53355   1.53616
 Alpha virt. eigenvalues --    1.58171   1.58302   1.58863   1.60564   1.64559
 Alpha virt. eigenvalues --    1.65261   1.68493   1.68694   1.70517   1.71437
 Alpha virt. eigenvalues --    1.72174   1.74764   1.76468   1.78958   1.80176
 Alpha virt. eigenvalues --    1.82278   1.83353   1.85758   1.86361   1.86946
 Alpha virt. eigenvalues --    1.87594   1.87833   1.90654   1.93391   1.94734
 Alpha virt. eigenvalues --    1.94744   1.95847   1.95944   1.96688   1.99019
 Alpha virt. eigenvalues --    2.02205   2.02568   2.02856   2.04258   2.04674
 Alpha virt. eigenvalues --    2.06728   2.06857   2.07248   2.09261   2.09725
 Alpha virt. eigenvalues --    2.11578   2.13224   2.13592   2.16111   2.16726
 Alpha virt. eigenvalues --    2.17846   2.18530   2.22290   2.24888   2.25235
 Alpha virt. eigenvalues --    2.29787   2.35238   2.35726   2.39008   2.39540
 Alpha virt. eigenvalues --    2.40523   2.41680   2.42689   2.45225   2.45247
 Alpha virt. eigenvalues --    2.61399   2.62971   2.63303   2.69595   2.78430
 Alpha virt. eigenvalues --    2.82626   2.83524   2.94439   2.95467   2.97179
 Alpha virt. eigenvalues --    2.98306   2.99904   3.02459   3.08451   3.08882
 Alpha virt. eigenvalues --    3.10919   3.13834   3.16402   3.18751   3.20526
 Alpha virt. eigenvalues --    3.27993   3.29959   3.33695   3.38312   3.41176
 Alpha virt. eigenvalues --    3.43603   3.44337   3.46144   3.52886   3.54851
 Alpha virt. eigenvalues --    3.55338   3.56005   3.57032   3.70281   3.72376
 Alpha virt. eigenvalues --    3.77960   3.78351   3.79113   3.85925   3.89762
 Alpha virt. eigenvalues --    3.92586   3.98322   4.02419   4.02862   4.06878
 Alpha virt. eigenvalues --    4.07842   4.08745   4.20839   4.23670   4.24318
 Alpha virt. eigenvalues --    4.26828   4.29250   4.36585   4.40168   4.41185
 Alpha virt. eigenvalues --    4.41527   4.46763   4.49344   4.50130   4.51373
 Alpha virt. eigenvalues --    4.53784   4.56364   4.59980   4.60052   4.61874
 Alpha virt. eigenvalues --    4.63559   4.63874   4.64887   4.65574   4.67350
 Alpha virt. eigenvalues --    4.74954   4.75389   4.86242   4.90923   4.93447
 Alpha virt. eigenvalues --    4.96046   4.98143   5.01889   5.16887   5.17091
 Alpha virt. eigenvalues --    5.23775   5.25517   5.27782   5.29874   5.41245
 Alpha virt. eigenvalues --    5.53815   5.54361   5.56184   5.58396   5.62105
 Alpha virt. eigenvalues --    5.62171   5.66821   5.71721   5.84374   5.86659
 Alpha virt. eigenvalues --    6.04869   6.05234   6.11646   6.11789   6.15394
 Alpha virt. eigenvalues --    6.16155   6.23262   6.31747   6.35884   6.39733
 Alpha virt. eigenvalues --    6.41916   6.55445   6.55676   6.61238   6.69021
 Alpha virt. eigenvalues --    6.71535   6.78346   7.20976  10.85716  16.32405
 Alpha virt. eigenvalues --   16.66381  45.67287  78.24724
  Beta  occ. eigenvalues --  -19.25466 -10.25319 -10.25215  -8.70397  -6.65544
  Beta  occ. eigenvalues --   -6.64675  -6.64634  -4.58957  -2.69677  -2.69131
  Beta  occ. eigenvalues --   -2.68917  -2.64810  -2.64587  -2.64555  -2.63886
  Beta  occ. eigenvalues --   -2.63886  -0.90867  -0.81414  -0.80541  -0.61524
  Beta  occ. eigenvalues --   -0.53483  -0.52553  -0.52232  -0.50760  -0.50736
  Beta  occ. eigenvalues --   -0.50224  -0.45223  -0.39099  -0.38329  -0.34429
  Beta  occ. eigenvalues --   -0.32850  -0.31175  -0.30225  -0.29771
  Beta virt. eigenvalues --   -0.14528  -0.06391  -0.02915  -0.00357   0.00065
  Beta virt. eigenvalues --    0.00445   0.00902   0.02376   0.02596   0.03309
  Beta virt. eigenvalues --    0.03322   0.03568   0.04479   0.05362   0.06731
  Beta virt. eigenvalues --    0.07350   0.07934   0.08875   0.09301   0.09364
  Beta virt. eigenvalues --    0.09978   0.10622   0.10876   0.11456   0.12100
  Beta virt. eigenvalues --    0.12666   0.12768   0.13374   0.13784   0.14288
  Beta virt. eigenvalues --    0.14521   0.15690   0.16331   0.17388   0.19075
  Beta virt. eigenvalues --    0.19112   0.19425   0.20700   0.20859   0.21711
  Beta virt. eigenvalues --    0.23516   0.23718   0.24779   0.26201   0.26490
  Beta virt. eigenvalues --    0.27419   0.28163   0.28574   0.29418   0.29564
  Beta virt. eigenvalues --    0.29875   0.30634   0.30976   0.31906   0.32831
  Beta virt. eigenvalues --    0.33264   0.34733   0.34983   0.35480   0.36749
  Beta virt. eigenvalues --    0.37283   0.38109   0.39182   0.39987   0.41105
  Beta virt. eigenvalues --    0.42866   0.43227   0.43939   0.44100   0.45736
  Beta virt. eigenvalues --    0.46578   0.47661   0.49286   0.49513   0.51714
  Beta virt. eigenvalues --    0.53014   0.54606   0.54972   0.56155   0.56322
  Beta virt. eigenvalues --    0.57991   0.58726   0.58770   0.59988   0.61555
  Beta virt. eigenvalues --    0.62714   0.63058   0.63376   0.63919   0.65006
  Beta virt. eigenvalues --    0.66331   0.66782   0.68786   0.69946   0.70420
  Beta virt. eigenvalues --    0.71261   0.72744   0.73172   0.74668   0.75501
  Beta virt. eigenvalues --    0.75951   0.76411   0.76864   0.78354   0.78932
  Beta virt. eigenvalues --    0.80820   0.81438   0.81656   0.83959   0.84843
  Beta virt. eigenvalues --    0.85577   0.86831   0.87523   0.89404   0.89631
  Beta virt. eigenvalues --    0.89730   0.90844   0.92600   0.93252   0.94095
  Beta virt. eigenvalues --    0.95922   0.97107   0.97191   0.98764   0.98857
  Beta virt. eigenvalues --    0.99337   1.00381   1.01272   1.02375   1.03991
  Beta virt. eigenvalues --    1.04750   1.06247   1.07762   1.09883   1.11269
  Beta virt. eigenvalues --    1.11507   1.12293   1.14224   1.17987   1.18495
  Beta virt. eigenvalues --    1.18879   1.20890   1.21209   1.23173   1.28494
  Beta virt. eigenvalues --    1.29764   1.30714   1.32521   1.34915   1.35854
  Beta virt. eigenvalues --    1.36080   1.39771   1.42591   1.42596   1.42856
  Beta virt. eigenvalues --    1.45369   1.46620   1.50654   1.53135   1.53713
  Beta virt. eigenvalues --    1.54306   1.58199   1.58338   1.60569   1.60582
  Beta virt. eigenvalues --    1.64646   1.65747   1.68525   1.68801   1.70549
  Beta virt. eigenvalues --    1.71458   1.72184   1.75452   1.77108   1.79170
  Beta virt. eigenvalues --    1.80357   1.84568   1.84730   1.86790   1.86957
  Beta virt. eigenvalues --    1.87739   1.88128   1.89403   1.90719   1.93592
  Beta virt. eigenvalues --    1.95170   1.96322   1.96334   1.97428   1.98237
  Beta virt. eigenvalues --    1.99392   2.02324   2.02812   2.03411   2.05223
  Beta virt. eigenvalues --    2.06192   2.06963   2.07794   2.08474   2.09975
  Beta virt. eigenvalues --    2.10441   2.12237   2.13443   2.14261   2.16331
  Beta virt. eigenvalues --    2.17075   2.18310   2.18881   2.22663   2.25489
  Beta virt. eigenvalues --    2.25813   2.29879   2.35700   2.36428   2.39023
  Beta virt. eigenvalues --    2.39608   2.41303   2.42401   2.42727   2.45248
  Beta virt. eigenvalues --    2.45305   2.62093   2.63411   2.63644   2.69596
  Beta virt. eigenvalues --    2.78435   2.82797   2.83581   2.94462   2.95527
  Beta virt. eigenvalues --    2.97345   2.98314   2.99947   3.02479   3.08472
  Beta virt. eigenvalues --    3.09376   3.11687   3.14004   3.16449   3.18768
  Beta virt. eigenvalues --    3.20572   3.27997   3.29963   3.33706   3.38313
  Beta virt. eigenvalues --    3.41183   3.43670   3.44340   3.46176   3.52892
  Beta virt. eigenvalues --    3.54851   3.55487   3.56004   3.57084   3.70284
  Beta virt. eigenvalues --    3.72409   3.77968   3.78456   3.79371   3.89915
  Beta virt. eigenvalues --    3.91487   3.98683   3.99335   4.02862   4.03306
  Beta virt. eigenvalues --    4.06883   4.08014   4.09215   4.20861   4.23686
  Beta virt. eigenvalues --    4.24974   4.27336   4.29284   4.36689   4.40269
  Beta virt. eigenvalues --    4.41220   4.41576   4.46881   4.49371   4.50149
  Beta virt. eigenvalues --    4.51414   4.54129   4.56384   4.59991   4.60072
  Beta virt. eigenvalues --    4.62150   4.63580   4.63902   4.64905   4.65617
  Beta virt. eigenvalues --    4.67873   4.74958   4.76178   4.86258   4.90921
  Beta virt. eigenvalues --    4.93448   4.96048   4.98144   5.01898   5.16890
  Beta virt. eigenvalues --    5.17305   5.23776   5.25519   5.27830   5.29878
  Beta virt. eigenvalues --    5.42809   5.53951   5.54509   5.56255   5.58446
  Beta virt. eigenvalues --    5.62358   5.62454   5.66830   5.71738   5.85227
  Beta virt. eigenvalues --    5.86776   6.10793   6.11690   6.13305   6.13710
  Beta virt. eigenvalues --    6.19878   6.21053   6.23608   6.31903   6.39743
  Beta virt. eigenvalues --    6.42028   6.42751   6.60497   6.65350   6.66065
  Beta virt. eigenvalues --    6.71085   6.79888   6.80728   7.23301  10.90198
  Beta virt. eigenvalues --   16.32408  16.66379  45.67438  78.24723
          Condensed to atoms (all electrons):
               1          2          3          4          5          6
     1  Br  25.044337   0.224262   0.030951  -0.001007  -0.002123   0.002099
     2  Hg   0.224262  18.871661   0.182172  -0.002258   0.000826   0.000178
     3  O    0.030951   0.182172   8.249712  -0.003755  -0.000305   0.000370
     4  H   -0.001007  -0.002258  -0.003755   0.359795   0.365699  -0.022337
     5  C   -0.002123   0.000826  -0.000305   0.365699   5.640399   0.383546
     6  H    0.002099   0.000178   0.000370  -0.022337   0.383546   0.371594
     7  C   -0.002168   0.000809  -0.000280  -0.040856   0.322706  -0.039641
     8  H    0.002098   0.000184   0.000360   0.011798  -0.039683  -0.009609
     9  H   -0.001007  -0.002275  -0.003713  -0.009590  -0.040798   0.011794
               7          8          9
     1  Br  -0.002168   0.002098  -0.001007
     2  Hg   0.000809   0.000184  -0.002275
     3  O   -0.000280   0.000360  -0.003713
     4  H   -0.040856   0.011798  -0.009590
     5  C    0.322706  -0.039683  -0.040798
     6  H   -0.039641  -0.009609   0.011794
     7  C    5.640451   0.383502   0.365734
     8  H    0.383502   0.371575  -0.022313
     9  H    0.365734  -0.022313   0.359732
          Atomic-Atomic Spin Densities.
               1          2          3          4          5          6
     1  Br   0.008085  -0.017853   0.000110   0.000065   0.000191  -0.000086
     2  Hg  -0.017853   0.021978  -0.016647  -0.000467   0.000239   0.000474
     3  O    0.000110  -0.016647   1.040770  -0.002780   0.001633   0.000694
     4  H    0.000065  -0.000467  -0.002780   0.037303   0.001829  -0.026119
     5  C    0.000191   0.000239   0.001633   0.001829   0.009139  -0.006320
     6  H   -0.000086   0.000474   0.000694  -0.026119  -0.006320   0.034666
     7  C    0.000190   0.000239   0.001634  -0.007667   0.001328   0.000259
     8  H   -0.000085   0.000471   0.000691   0.009347   0.000258  -0.012270
     9  H    0.000065  -0.000466  -0.002769  -0.013785  -0.007663   0.009345
               7          8          9
     1  Br   0.000190  -0.000085   0.000065
     2  Hg   0.000239   0.000471  -0.000466
     3  O    0.001634   0.000691  -0.002769
     4  H   -0.007667   0.009347  -0.013785
     5  C    0.001328   0.000258  -0.007663
     6  H    0.000259  -0.012270   0.009345
     7  C    0.009139  -0.006323   0.001834
     8  H   -0.006323   0.034668  -0.026116
     9  H    0.001834  -0.026116   0.037290
 Mulliken charges and spin densities:
               1          2
     1  Br  -0.297442  -0.009317
     2  Hg   0.724441  -0.012033
     3  O   -0.455512   1.023337
     4  H    0.342510  -0.002274
     5  C   -0.630268   0.000635
     6  H    0.302006   0.000643
     7  C   -0.630258   0.000633
     8  H    0.302087   0.000641
     9  H    0.342435  -0.002265
 Sum of Mulliken charges =   0.00000   1.00000
 Mulliken charges and spin densities with hydrogens summed into heavy atoms:
               1          2
     1  Br  -0.297442  -0.009317
     2  Hg   0.724441  -0.012033
     3  O   -0.455512   1.023337
     5  C    0.014249  -0.000996
     7  C    0.014264  -0.000990
 APT charges:
               1
     1  Br  -0.314444
     2  Hg   0.745342
     3  O   -0.474646
     4  H    0.613946
     5  C   -1.124562
     6  H    0.532483
     7  C   -1.124455
     8  H    0.532369
     9  H    0.613967
 Sum of APT charges =   0.00000
 APT charges with hydrogens summed into heavy atoms:
               1
     1  Br  -0.314444
     2  Hg   0.745342
     3  O   -0.474646
     5  C    0.021867
     7  C    0.021881
 Electronic spatial extent (au):  <R**2>=           1283.6317
 Charge=              0.0000 electrons
 Dipole moment (field-independent basis, Debye):
    X=             -0.2694    Y=              0.8862    Z=             -0.0001  Tot=              0.9263
 Quadrupole moment (field-independent basis, Debye-Ang):
   XX=            -66.2060   YY=            -62.4734   ZZ=            -57.0921
   XY=             -4.2449   XZ=              0.0006   YZ=              0.0000
 Traceless Quadrupole moment (field-independent basis, Debye-Ang):
   XX=             -4.2822   YY=             -0.5496   ZZ=              4.8317
   XY=             -4.2449   XZ=              0.0006   YZ=              0.0000
 Octapole moment (field-independent basis, Debye-Ang**2):
  XXX=             38.5374  YYY=            -50.3016  ZZZ=              0.0006  XYY=             23.4131
  XXY=            -13.0665  XXZ=             -0.0022  XZZ=              3.9575  YZZ=            -17.9346
  YYZ=             -0.0012  XYZ=              0.0008
 Hexadecapole moment (field-independent basis, Debye-Ang**3):
 XXXX=           -993.9901 YYYY=           -639.8678 ZZZZ=           -116.8540 XXXY=             76.0311
 XXXZ=              0.0054 YYYX=             71.3718 YYYZ=             -0.0031 ZZZX=             -0.0067
 ZZZY=             -0.0062 XXYY=           -304.7590 XXZZ=           -173.8343 YYZZ=           -112.5717
 XXYZ=             -0.0030 YYXZ=              0.0048 ZZXY=             17.5147
 N-N= 3.249143050332D+02 E-N=-2.354571785436D+03  KE= 4.988844332416D+02
  Exact polarizability:   0.000   0.000   0.000   0.000   0.000   0.000
 Approx polarizability: 154.246  30.673 119.823   0.008   0.004 115.610
                          Isotropic Fermi Contact Couplings
        Atom                 a.u.       MegaHertz       Gauss      10(-4) cm-1
     1  Br(79)             0.00004       0.04739       0.01691       0.01581
     2  Hg(199             0.00000      -0.00146      -0.00052      -0.00049
     3  O(17)             -0.01569       9.51137       3.39389       3.17265
     4  H(1)               0.00001       0.06542       0.02334       0.02182
     5  C(13)             -0.00016      -0.18059      -0.06444      -0.06024
     6  H(1)               0.00002       0.07433       0.02652       0.02479
     7  C(13)             -0.00016      -0.18035      -0.06435      -0.06016
     8  H(1)               0.00002       0.07441       0.02655       0.02482
     9  H(1)               0.00001       0.06548       0.02336       0.02184
 --------------------------------------------------------
       Center         ----  Spin Dipole Couplings  ----
                      3XX-RR        3YY-RR        3ZZ-RR
 --------------------------------------------------------
     1   Atom       -0.017835     -0.006478      0.024313
     2   Atom        0.019873     -0.015331     -0.004542
     3   Atom       -1.773627     -1.868173      3.641800
     4   Atom       -0.002469      0.004641     -0.002172
     5   Atom       -0.002204      0.004001     -0.001796
     6   Atom       -0.001487      0.002682     -0.001195
     7   Atom       -0.002204      0.004000     -0.001796
     8   Atom       -0.001486      0.002682     -0.001195
     9   Atom       -0.002470      0.004640     -0.002170
 --------------------------------------------------------
                        XY            XZ            YZ
 --------------------------------------------------------
     1   Atom       -0.011262      0.000000      0.000001
     2   Atom        0.036939     -0.000002      0.000000
     3   Atom        0.090061      0.000006      0.000253
     4   Atom       -0.002699      0.000872     -0.002809
     5   Atom        0.000024      0.000201     -0.001232
     6   Atom        0.000202      0.000006     -0.001087
     7   Atom        0.000026     -0.000201      0.001232
     8   Atom        0.000203     -0.000006      0.001085
     9   Atom       -0.002694     -0.000871      0.002810
 --------------------------------------------------------


 ---------------------------------------------------------------------------------
              Anisotropic Spin Dipole Couplings in Principal Axis System
 ---------------------------------------------------------------------------------

       Atom             a.u.   MegaHertz   Gauss  10(-4) cm-1        Axes

              Baa    -0.0248    -3.322    -1.186    -1.108  0.8515  0.5243  0.0000
     1 Br(79) Bbb     0.0005     0.061     0.022     0.020 -0.5243  0.8515  0.0000
              Bcc     0.0243     3.261     1.164     1.088  0.0000  0.0001  1.0000
 
              Baa    -0.0386    -3.735    -1.333    -1.246 -0.5338  0.8456  0.0000
     2 Hg(199 Bbb    -0.0045    -0.439    -0.157    -0.146  0.0000  0.0000  1.0000
              Bcc     0.0432     4.174     1.489     1.392  0.8456  0.5338  0.0000
 
              Baa    -1.9226   139.119    49.641    46.405 -0.5173  0.8558  0.0000
     3 O(17)  Bbb    -1.7192   124.399    44.389    41.495  0.8558  0.5173  0.0000
              Bcc     3.6418  -263.518   -94.030   -87.900  0.0000  0.0000  1.0000
 
              Baa    -0.0034    -1.812    -0.647    -0.604  0.8842  0.3879  0.2603
     4 H(1)   Bbb    -0.0031    -1.678    -0.599    -0.560 -0.3580  0.2046  0.9110
              Bcc     0.0065     3.491     1.246     1.164 -0.3001  0.8987 -0.3198
 
              Baa    -0.0023    -0.314    -0.112    -0.105  0.8251 -0.1108 -0.5539
     5 C(13)  Bbb    -0.0019    -0.256    -0.091    -0.085  0.5649  0.1662  0.8082
              Bcc     0.0043     0.571     0.204     0.190 -0.0025  0.9798 -0.1997
 
              Baa    -0.0015    -0.824    -0.294    -0.275  0.7544 -0.1970 -0.6261
     6 H(1)   Bbb    -0.0014    -0.763    -0.272    -0.254  0.6550  0.1629  0.7379
              Bcc     0.0030     1.587     0.566     0.529  0.0434  0.9668 -0.2519
 
              Baa    -0.0023    -0.314    -0.112    -0.105  0.8253 -0.1109  0.5537
     7 C(13)  Bbb    -0.0019    -0.256    -0.091    -0.085 -0.5647 -0.1660  0.8085
              Bcc     0.0043     0.570     0.204     0.190 -0.0022  0.9799  0.1997
 
              Baa    -0.0015    -0.824    -0.294    -0.275  0.7551 -0.1968  0.6254
     8 H(1)   Bbb    -0.0014    -0.763    -0.272    -0.254 -0.6542 -0.1627  0.7386
              Bcc     0.0030     1.587     0.566     0.529  0.0436  0.9668  0.2516
 
              Baa    -0.0034    -1.811    -0.646    -0.604  0.8840  0.3878 -0.2610
     9 H(1)   Bbb    -0.0031    -1.678    -0.599    -0.560  0.3587 -0.2046  0.9108
              Bcc     0.0065     3.489     1.245     1.164 -0.2997  0.8988  0.3200
 

 ---------------------------------------------------------------------------------

   1 Symmetry operations used in ECPInt.
 ECPInt:  NShTT=    6903 NPrTT=   30269 LenC2=    6870 LenP2D=   24778.
 LDataN:  DoStor=T MaxTD1=11 Len= 1166
 Calling FoFJK, ICntrl=    100147 FMM=F ISym2X=0 I1Cent= 0 IOpClX= 1 NMat=1 NMatS=1 NMatT=0.
 Defaulting to unpruned grid for atomic number  80.
 Defaulting to unpruned grid for atomic number  80.
 Defaulting to unpruned grid for atomic number  80.
 Defaulting to unpruned grid for atomic number  80.
 ***** Axes restored to original set *****
 -------------------------------------------------------------------
 Center     Atomic                   Forces (Hartrees/Bohr)
 Number     Number              X              Y              Z
 -------------------------------------------------------------------
      1       35          -0.000068119   -0.000023879   -0.000000008
      2       80          -0.000137426   -0.000569340   -0.000000189
      3        8           0.000173224    0.000598219   -0.000000049
      4        1           0.000012620   -0.000003883   -0.000001556
      5        6          -0.000011856    0.000003209    0.000017832
      6        1           0.000015338   -0.000002165    0.000000770
      7        6          -0.000011426    0.000003470   -0.000016206
      8        1           0.000015011   -0.000002575   -0.000001367
      9        1           0.000012634   -0.000003057    0.000000773
 -------------------------------------------------------------------
 Cartesian Forces:  Max     0.000598219 RMS     0.000165307
 FormGI is forming the generalized inverse of G from B-inverse, IUseBI=4.

 GradGradGradGradGradGradGradGradGradGradGradGradGradGradGradGradGradGrad
 Berny optimization.
 Internal  Forces:  Max     0.000788630 RMS     0.000198008
 Search for a local minimum.
 Step number   1 out of a maximum of   50 on scan point     1 out of    31
 All quantities printed in internal units (Hartrees-Bohrs-Radians)
 Mixed Optimization -- En-DIIS/RFO-DIIS
 Second derivative matrix not updated -- analytic derivatives used.
 ITU=  0
     Eigenvalues ---   -0.00083   0.00065   0.00594   0.01113   0.02608
     Eigenvalues ---    0.02756   0.03439   0.03782   0.06333   0.06507
     Eigenvalues ---    0.07005   0.10579   0.12868   0.14172   0.18214
     Eigenvalues ---    0.35980   0.36068   0.36252   0.36305   0.64252
     Eigenvalues --- 1000.000001000.000001000.000001000.000001000.00000
     Eigenvalues --- 1000.000001000.000001000.000001000.000001000.00000
     Eigenvalues --- 1000.000001000.000001000.00000
 RFO step:  Lambda=-8.32422574D-04 EMin=-8.27985008D-04
 I=     1 Eig=   -8.28D-04 Dot1=  3.32D-05
 I=     1 Stepn=  6.00D-01 RXN=   6.00D-01 EDone=F
 Mixed    1 eigenvectors in step.  Raw Step.Grad=  3.32D-05.
 RFO eigenvector is Hessian eigenvector with negative curvature.
 Taking step of  6.00D-01 in eigenvector direction(s).  Step.Grad= -6.47D-05.
 Linear search not attempted -- first point.
 Iteration  1 RMS(Cart)=  0.16096361 RMS(Int)=  0.01867290
 Iteration  2 RMS(Cart)=  0.03005520 RMS(Int)=  0.00037504
 Iteration  3 RMS(Cart)=  0.00036560 RMS(Int)=  0.00023250
 Iteration  4 RMS(Cart)=  0.00000005 RMS(Int)=  0.00023250
 Iteration  1 RMS(Cart)=  0.00000000 RMS(Int)=  0.00000000
 Variable       Old X    -DE/DX   Delta X   Delta X   Delta X     New X
                                 (Linear)    (Quad)   (Total)
    R1        4.50971  -0.00002   0.00000  -0.00119  -0.00119   4.50852
    R2        3.73292  -0.00052   0.00000  -0.00050  -0.00050   3.73243
    R3        6.49554  -0.00003   0.00000   0.00000   0.00000   6.49554
    R4        2.04585   0.00002   0.00000  -0.00035  -0.00035   2.04550
    R5        2.04571  -0.00002   0.00000   0.00034   0.00034   2.04605
    R6        2.50400  -0.00002   0.00000  -0.00024  -0.00024   2.50375
    R7        2.04571  -0.00002   0.00000  -0.00029  -0.00029   2.04542
    R8        2.04586   0.00002   0.00000   0.00030   0.00030   2.04615
    A1        1.69158   0.00023   0.00000   0.06969   0.06969   1.76127
    A2        1.49185  -0.00079   0.00000  -0.07626  -0.07626   1.41559
    A3        1.58755  -0.00003   0.00000  -0.05825  -0.05837   1.52918
    A4        1.76674   0.00004   0.00000   0.00375   0.00386   1.77061
    A5        1.37678  -0.00003   0.00000   0.05236   0.05230   1.42908
    A6        2.04197   0.00000   0.00000   0.00155   0.00129   2.04326
    A7        2.11917  -0.00005   0.00000   0.00173   0.00241   2.12158
    A8        2.12199   0.00005   0.00000  -0.00326  -0.00369   2.11830
    A9        2.12200   0.00002   0.00000   0.00039   0.00039   2.12239
   A10        2.11917  -0.00002   0.00000   0.00109   0.00109   2.12026
   A11        2.04196   0.00000   0.00000  -0.00149  -0.00149   2.04047
   A12        3.18343  -0.00056   0.00000  -0.00658  -0.00658   3.17686
   A13        3.13329   0.00007   0.00000  -0.01115  -0.01115   3.12214
    D1        2.56202   0.00001   0.00000   0.22577   0.22623   2.78826
    D2        0.50626   0.00001   0.00000   0.23730   0.23738   0.74364
    D3       -1.59406  -0.00003   0.00000   0.23505   0.23450  -1.35956
    D4       -0.57127  -0.00005   0.00000   0.23692   0.23738  -0.33388
    D5       -2.62703  -0.00005   0.00000   0.24845   0.24853  -2.37850
    D6        1.55583  -0.00009   0.00000   0.24620   0.24565   1.80148
    D7        1.68314   0.00003   0.00000   0.03066   0.03064   1.71379
    D8       -1.47062   0.00004   0.00000   0.02973   0.02971  -1.44091
    D9       -3.12943  -0.00001   0.00000  -0.00651  -0.00654  -3.13598
   D10       -0.00001   0.00000   0.00000  -0.00745  -0.00748  -0.00749
   D11       -0.00001   0.00000   0.00000  -0.00542  -0.00538  -0.00539
   D12        3.12941   0.00002   0.00000  -0.00636  -0.00631   3.12310
         Item               Value     Threshold  Converged?
 Maximum Force            0.000789     0.000450     NO 
 RMS     Force            0.000201     0.000300     YES
 Maximum Displacement     0.595185     0.001800     NO 
 RMS     Displacement     0.187616     0.001200     NO 
 Predicted change in Energy=-1.822203D-04
 GradGradGradGradGradGradGradGradGradGradGradGradGradGradGradGradGradGrad

                          Input orientation:                          
 ---------------------------------------------------------------------
 Center     Atomic      Atomic             Coordinates (Angstroms)
 Number     Number       Type             X           Y           Z
 ---------------------------------------------------------------------
      1         35           0        1.908774    0.576595    0.243062
      2         80           0       -0.168093   -0.561014   -0.047689
      3          8           0       -1.847378   -1.565841   -0.314895
      4          1           0       -2.966604    1.377950   -1.089717
      5          6           0       -2.282011    2.084325   -0.638024
      6          1           0       -1.685833    2.690342   -1.308552
      7          6           0       -2.185186    2.212037    0.677176
      8          1           0       -1.504587    2.921751    1.129568
      9          1           0       -2.792694    1.618902    1.349139
 ---------------------------------------------------------------------
                    Distance matrix (angstroms):
                    1          2          3          4          5
     1  Br   0.000000
     2  Hg   2.385805   0.000000
     3  O    4.360049   1.975114   0.000000
     4  H    5.117400   3.560488   3.243289   0.000000
     5  C    4.540071   3.437290   3.690126   1.082433   0.000000
     6  H    4.449340   3.803239   4.373620   1.846792   1.082725
     7  C    4.429857   3.504840   3.920546   2.104336   1.324929
     8  H    4.235172   3.911752   4.726781   3.073441   2.104769
     9  H    4.941013   3.686691   3.715537   2.456892   2.103860
                    6          7          8          9
     6  H    0.000000
     7  C    2.102676   0.000000
     8  H    2.455775   1.082390   0.000000
     9  H    3.071880   1.082778   1.845223   0.000000
 Stoichiometry    C2H4BrHgO(2)
 Framework group  C1[X(C2H4BrHgO)]
 Deg. of freedom    21
 Full point group                 C1      NOp   1
 Largest Abelian subgroup         C1      NOp   1
 Largest concise Abelian subgroup C1      NOp   1
                         Standard orientation:                         
 ---------------------------------------------------------------------
 Center     Atomic      Atomic             Coordinates (Angstroms)
 Number     Number       Type             X           Y           Z
 ---------------------------------------------------------------------
      1         35           0        1.873850    0.679381   -0.020797
      2         80           0       -0.170359   -0.550367    0.010698
      3          8           0       -1.822536   -1.632670    0.013445
      4          1           0       -3.132527    1.169802   -0.960720
      5          6           0       -2.440407    1.943564   -0.654251
      6          1           0       -1.934305    2.491101   -1.439335
      7          6           0       -2.229592    2.218499    0.624578
      8          1           0       -1.541525    2.995525    0.931763
      9          1           0       -2.747385    1.683548    1.410788
 ---------------------------------------------------------------------
 Rotational constants (GHZ):      1.8518804      0.9897232      0.6720626
 Basis read from rwf:  (5D, 7F)
 Pseudo-potential data read from rwf file.
 There are   444 symmetry adapted cartesian basis functions of A   symmetry.
 There are   373 symmetry adapted basis functions of A   symmetry.
   373 basis functions,   738 primitive gaussians,   444 cartesian basis functions
    35 alpha electrons       34 beta electrons
       nuclear repulsion energy       323.8938927262 Hartrees.
 NAtoms=    9 NActive=    9 NUniq=    9 SFac= 1.00D+00 NAtFMM=   60 NAOKFM=F Big=F
 Integral buffers will be    131072 words long.
 Raffenetti 2 integral format.
 Two-electron integral symmetry is turned on.
 One-electron integrals computed using PRISM.
   1 Symmetry operations used in ECPInt.
 ECPInt:  NShTT=    6903 NPrTT=   30269 LenC2=    6868 LenP2D=   24736.
 LDataN:  DoStor=T MaxTD1= 9 Len=  602
 NBasis=   373 RedAO= T EigKep=  4.19D-06  NBF=   373
 NBsUse=   373 1.00D-06 EigRej= -1.00D+00 NBFU=   373
 Defaulting to unpruned grid for atomic number  80.
 Initial guess from the checkpoint file:  "vdw_rscan_hgc.chk"
 B after Tr=     0.000000    0.000000    0.000000
         Rot=    0.999751    0.015768   -0.007325   -0.014007 Ang=   2.56 deg.
 Initial guess <Sx>= 0.0000 <Sy>= 0.0000 <Sz>= 0.5000 <S**2>= 0.7569 S= 0.5034
 ExpMin= 1.28D-02 ExpMax= 1.53D+04 ExpMxC= 5.22D+02 IAcc=3 IRadAn=         5 AccDes= 0.00D+00
 Harris functional with IExCor=  908 and IRadAn=       5 diagonalized for initial guess.
 HarFok:  IExCor=  908 AccDes= 0.00D+00 IRadAn=         5 IDoV= 1 UseB2=F ITyADJ=14
 ICtDFT=  3500011 ScaDFX=  1.000000  1.000000  1.000000  1.000000
 Defaulting to unpruned grid for atomic number  80.
 Defaulting to unpruned grid for atomic number  80.
 Defaulting to unpruned grid for atomic number  80.
 Defaulting to unpruned grid for atomic number  80.
 FoFCou: FMM=F IPFlag=           0 FMFlag=      100000 FMFlg1=           0
         NFxFlg=           0 DoJE=T BraDBF=F KetDBF=T FulRan=T
         wScrn=  0.000000 ICntrl=     500 IOpCl=  0 I1Cent=   200000004 NGrid=           0
         NMat0=    1 NMatS0=      1 NMatT0=    0 NMatD0=    1 NMtDS0=    0 NMtDT0=    0
 Petite list used in FoFCou.
 Requested convergence on RMS density matrix=1.00D-08 within 128 cycles.
 Requested convergence on MAX density matrix=1.00D-06.
 Requested convergence on             energy=1.00D-06.
 No special actions if energy rises.
 Defaulting to unpruned grid for atomic number  80.
 Defaulting to unpruned grid for atomic number  80.
 Defaulting to unpruned grid for atomic number  80.
 Defaulting to unpruned grid for atomic number  80.
 Restarting incremental Fock formation.
 SCF Done:  E(UmPW1PW91) =  -724.289667735     A.U. after   29 cycles
            NFock= 29  Conv=0.54D-08     -V/T= 2.4518
 <Sx>= 0.0000 <Sy>= 0.0000 <Sz>= 0.5000 <S**2>= 0.7568 S= 0.5034
 <L.S>= 0.000000000000E+00
 Annihilation of the first spin contaminant:
 S**2 before annihilation     0.7568,   after     0.7500
   1 Symmetry operations used in ECPInt.
 ECPInt:  NShTT=    6903 NPrTT=   30269 LenC2=    6868 LenP2D=   24736.
 LDataN:  DoStor=T MaxTD1=10 Len=  848
 Calling FoFJK, ICntrl=      2127 FMM=F ISym2X=0 I1Cent= 0 IOpClX= 1 NMat=1 NMatS=1 NMatT=0.
 Defaulting to unpruned grid for atomic number  80.
 Defaulting to unpruned grid for atomic number  80.
 Defaulting to unpruned grid for atomic number  80.
 Defaulting to unpruned grid for atomic number  80.
 ***** Axes restored to original set *****
 -------------------------------------------------------------------
 Center     Atomic                   Forces (Hartrees/Bohr)
 Number     Number              X              Y              Z
 -------------------------------------------------------------------
      1       35          -0.000173564   -0.000087679    0.000224003
      2       80          -0.000229410   -0.000260978   -0.000575220
      3        8           0.000244661    0.000384467    0.000369414
      4        1          -0.000022536    0.000035069    0.000072453
      5        6           0.000128992    0.000119039   -0.000013438
      6        1           0.000010789   -0.000087058   -0.000136847
      7        6          -0.000013390   -0.000001231    0.000011620
      8        1          -0.000001361   -0.000022329    0.000079209
      9        1           0.000055820   -0.000079299   -0.000031195
 -------------------------------------------------------------------
 Cartesian Forces:  Max     0.000575220 RMS     0.000189112

 GradGradGradGradGradGradGradGradGradGradGradGradGradGradGradGradGradGrad
 Berny optimization.
 Using GEDIIS/GDIIS optimizer.
 FormGI is forming the generalized inverse of G from B-inverse, IUseBI=4.
 Internal  Forces:  Max     0.000500775 RMS     0.000186382
 Search for a local minimum.
 Step number   2 out of a maximum of   50 on scan point     1 out of    31
 All quantities printed in internal units (Hartrees-Bohrs-Radians)
 Mixed Optimization -- En-DIIS/RFO-DIIS
 Swapping is turned off.
 Update second derivatives using D2CorX and points    1    2
 ITU=  0  0
     Eigenvalues ---    0.00005   0.00129   0.00642   0.01373   0.02608
     Eigenvalues ---    0.02763   0.03768   0.04164   0.06355   0.06737
     Eigenvalues ---    0.07270   0.10581   0.12895   0.14199   0.18215
     Eigenvalues ---    0.35983   0.36071   0.36252   0.36305   0.64258
     Eigenvalues --- 1000.000001000.000001000.000001000.000001000.00000
     Eigenvalues --- 1000.000001000.000001000.000001000.000001000.00000
     Eigenvalues --- 1000.000001000.000001000.00000
 Eigenvalue     1 is   4.80D-05 Eigenvector:
                          D5        D4        D6        D2        D1
   1                    0.41561   0.41030   0.40775   0.40268   0.39737
                          D3        A5        A4        A2        A1
   1                    0.39482   0.06358  -0.05962  -0.05225   0.04996
 En-DIIS/RFO-DIIS IScMMF=        0 using points:     2    1
 RFO step:  Lambda=-6.22796693D-06.
 DidBck=F Rises=F RFO-DIIS coefs:    0.85884    0.14116
 Iteration  1 RMS(Cart)=  0.15789875 RMS(Int)=  0.03187856
 Iteration  2 RMS(Cart)=  0.05233261 RMS(Int)=  0.00113518
 Iteration  3 RMS(Cart)=  0.00099148 RMS(Int)=  0.00067375
 Iteration  4 RMS(Cart)=  0.00000032 RMS(Int)=  0.00067375
 Iteration  1 RMS(Cart)=  0.00000000 RMS(Int)=  0.00000000
 Variable       Old X    -DE/DX   Delta X   Delta X   Delta X     New X
                                 (Linear)    (Quad)   (Total)
    R1        4.50852  -0.00012   0.00017  -0.00040  -0.00023   4.50828
    R2        3.73243  -0.00050   0.00007  -0.00024  -0.00017   3.73226
    R3        6.49554  -0.00012   0.00000   0.00000   0.00000   6.49554
    R4        2.04550  -0.00002   0.00005   0.00045   0.00050   2.04600
    R5        2.04605   0.00002  -0.00005  -0.00040  -0.00045   2.04561
    R6        2.50375   0.00004   0.00003   0.00014   0.00018   2.50393
    R7        2.04542   0.00000   0.00004   0.00014   0.00018   2.04560
    R8        2.04615   0.00001  -0.00004  -0.00007  -0.00011   2.04604
    A1        1.76127   0.00007  -0.00984   0.01950   0.00966   1.77094
    A2        1.41559  -0.00026   0.01077  -0.02184  -0.01108   1.40451
    A3        1.52918   0.00006   0.00824  -0.03672  -0.02833   1.50086
    A4        1.77061   0.00009  -0.00055   0.10401   0.10301   1.87362
    A5        1.42908  -0.00023  -0.00738  -0.06324  -0.07026   1.35882
    A6        2.04326  -0.00004  -0.00018   0.00106   0.00099   2.04425
    A7        2.12158  -0.00015  -0.00034  -0.00588  -0.00799   2.11358
    A8        2.11830   0.00019   0.00052   0.00481   0.00698   2.12529
    A9        2.12239   0.00016  -0.00006   0.00244   0.00238   2.12477
   A10        2.12026  -0.00013  -0.00015  -0.00447  -0.00462   2.11564
   A11        2.04047  -0.00002   0.00021   0.00204   0.00225   2.04272
   A12        3.17686  -0.00018   0.00093  -0.00234  -0.00141   3.17544
   A13        3.12214   0.00046   0.00157   0.02287   0.02445   3.14659
    D1        2.78826   0.00025  -0.03193  -0.22967  -0.26257   2.52569
    D2        0.74364   0.00028  -0.03351  -0.22912  -0.26335   0.48029
    D3       -1.35956   0.00012  -0.03310  -0.21966  -0.25108  -1.61064
    D4       -0.33388  -0.00021  -0.03351  -0.25255  -0.28702  -0.62090
    D5       -2.37850  -0.00019  -0.03508  -0.25199  -0.28780  -2.66630
    D6        1.80148  -0.00035  -0.03468  -0.24254  -0.27553   1.52595
    D7        1.71379   0.00001  -0.00433   0.08980   0.08545   1.79924
    D8       -1.44091   0.00006  -0.00419   0.09096   0.08674  -1.35417
    D9       -3.13598  -0.00004   0.00092   0.00678   0.00787  -3.12810
   D10       -0.00749   0.00002   0.00106   0.00794   0.00916   0.00168
   D11       -0.00539   0.00005   0.00076   0.00574   0.00635   0.00096
   D12        3.12310   0.00011   0.00089   0.00690   0.00764   3.13074
         Item               Value     Threshold  Converged?
 Maximum Force            0.000501     0.000450     NO 
 RMS     Force            0.000188     0.000300     YES
 Maximum Displacement     0.656364     0.001800     NO 
 RMS     Displacement     0.205728     0.001200     NO 
 Predicted change in Energy=-5.659904D-05
 GradGradGradGradGradGradGradGradGradGradGradGradGradGradGradGradGradGrad

                          Input orientation:                          
 ---------------------------------------------------------------------
 Center     Atomic      Atomic             Coordinates (Angstroms)
 Number     Number       Type             X           Y           Z
 ---------------------------------------------------------------------
      1         35           0        1.970790    0.523952    0.017950
      2         80           0       -0.172304   -0.524192    0.013224
      3          8           0       -1.917620   -1.448436    0.032439
      4          1           0       -2.832617    1.433173   -1.235183
      5          6           0       -2.234035    2.139051   -0.673336
      6          1           0       -1.655739    2.857161   -1.240501
      7          6           0       -2.225771    2.127213    0.651608
      8          1           0       -1.640870    2.835927    1.223790
      9          1           0       -2.815445    1.411198    1.210078
 ---------------------------------------------------------------------
                    Distance matrix (angstroms):
                    1          2          3          4          5
     1  Br   0.000000
     2  Hg   2.385681   0.000000
     3  O    4.360075   1.975025   0.000000
     4  H    5.046755   3.530873   3.278377   0.000000
     5  C    4.557080   3.437290   3.669918   1.082699   0.000000
     6  H    4.492135   3.899481   4.497457   1.847379   1.082490
     7  C    4.536859   3.413826   3.641922   2.099985   1.325022
     8  H    4.454589   3.861678   4.455522   3.071569   2.106317
     9  H    5.011628   3.487749   3.220316   2.445421   2.101203
                    6          7          8          9
     6  H    0.000000
     7  C    2.106617   0.000000
     8  H    2.464428   1.082487   0.000000
     9  H    3.072632   1.082720   1.846529   0.000000
 Stoichiometry    C2H4BrHgO(2)
 Framework group  C1[X(C2H4BrHgO)]
 Deg. of freedom    21
 Full point group                 C1      NOp   1
 Largest Abelian subgroup         C1      NOp   1
 Largest concise Abelian subgroup C1      NOp   1
                         Standard orientation:                         
 ---------------------------------------------------------------------
 Center     Atomic      Atomic             Coordinates (Angstroms)
 Number     Number       Type             X           Y           Z
[...]
 ! D2    D(1,2,5,6)            -24.0149         -DE/DX =    0.0                 !
 ! D3    D(1,2,5,7)           -129.1858         -DE/DX =    0.0                 !
 ! D4    D(3,2,5,4)            -80.0361         -DE/DX =    0.0                 !
 ! D5    D(3,2,5,6)            155.9223         -DE/DX =    0.0                 !
 ! D6    D(3,2,5,7)             50.7514         -DE/DX =    0.0                 !
 ! D7    D(2,5,7,8)            117.5981         -DE/DX =    0.0                 !
 ! D8    D(2,5,7,9)            -62.5912         -DE/DX =    0.0                 !
 ! D9    D(4,5,7,8)           -179.6329         -DE/DX =    0.0                 !
 ! D10   D(4,5,7,9)              0.1778         -DE/DX =    0.0                 !
 ! D11   D(6,5,7,8)              0.1638         -DE/DX =    0.0                 !
 ! D12   D(6,5,7,9)            179.9745         -DE/DX =    0.0                 !
 --------------------------------------------------------------------------------
 Iteration  1 RMS(Cart)=  0.04619773 RMS(Int)=  0.00001622
 Iteration  2 RMS(Cart)=  0.00004753 RMS(Int)=  0.00000000
 Iteration  3 RMS(Cart)=  0.00000000 RMS(Int)=  0.00000000
 Iteration  1 RMS(Cart)=  0.00000000 RMS(Int)=  0.00000000
 GradGradGradGradGradGradGradGradGradGradGradGradGradGradGradGradGradGrad

                          Input orientation:                          
 ---------------------------------------------------------------------
 Center     Atomic      Atomic             Coordinates (Angstroms)
 Number     Number       Type             X           Y           Z
 ---------------------------------------------------------------------
      1         35           0        2.706784   -0.617943   -0.513597
      2         80           0        0.514480   -1.177901    0.221683
      3          8           0       -1.298511   -1.654841    0.837732
      4          1           0       -2.989701    2.276387   -1.558269
      5          6           0       -2.634160    2.782335   -0.669579
      6          1           0       -2.386145    3.830841   -0.774629
      7          6           0       -2.513075    2.151047    0.486804
      8          1           0       -2.162597    2.662507    1.374638
      9          1           0       -2.760685    1.102617    0.595284
 ---------------------------------------------------------------------
                    Distance matrix (angstroms):
                    1          2          3          4          5
     1  Br   0.000000
     2  Hg   2.379157   0.000000
     3  O    4.352429   1.973303   0.000000
     4  H    6.474444   5.232554   4.904640   0.000000
     5  C    6.333396   5.137290   4.872830   1.082665   0.000000
     6  H    6.767404   5.873140   5.820255   1.842471   1.082549
     7  C    5.992916   4.507580   4.010375   2.103617   1.323029
     8  H    6.167468   4.821284   4.435584   3.071666   2.101322
     9  H    5.838078   4.008372   3.130544   2.463326   2.106499
                    6          7          8          9
     6  H    0.000000
     7  C    2.104527   0.000000
     8  H    2.456487   1.082901   0.000000
     9  H    3.075736   1.082721   1.843463   0.000000
 Stoichiometry    C2H4BrHgO(2)
 Framework group  C1[X(C2H4BrHgO)]
 Deg. of freedom    21
 Full point group                 C1      NOp   1
 Largest Abelian subgroup         C1      NOp   1
 Largest concise Abelian subgroup C1      NOp   1
                         Standard orientation:                         
 ---------------------------------------------------------------------
 Center     Atomic      Atomic             Coordinates (Angstroms)
 Number     Number       Type             X           Y           Z
 ---------------------------------------------------------------------
      1         35           0        1.846438    1.141585    0.027240
      2         80           0        0.169907   -0.545915   -0.017209
      3          8           0       -1.210271   -1.955843   -0.050919
      4          1           0       -4.448034    1.449293   -1.457136
      5          6           0       -4.450902    1.666772   -0.396543
      6          1           0       -4.745308    2.667545   -0.107251
      7          6           0       -4.115189    0.753592    0.500010
      8          1           0       -4.125105    0.973706    1.560259
      9          1           0       -3.820708   -0.248286    0.213991
 ---------------------------------------------------------------------
 Rotational constants (GHZ):      1.8011069      0.6154077      0.4668932
 Basis read from rwf:  (5D, 7F)
 Pseudo-potential data read from rwf file.
 There are   444 symmetry adapted cartesian basis functions of A   symmetry.
 There are   373 symmetry adapted basis functions of A   symmetry.
   373 basis functions,   738 primitive gaussians,   444 cartesian basis functions
    35 alpha electrons       34 beta electrons
       nuclear repulsion energy       296.6883487229 Hartrees.
 NAtoms=    9 NActive=    9 NUniq=    9 SFac= 1.00D+00 NAtFMM=   60 NAOKFM=F Big=F
 Integral buffers will be    131072 words long.
 Raffenetti 2 integral format.
 Two-electron integral symmetry is turned on.
 One-electron integrals computed using PRISM.
   1 Symmetry operations used in ECPInt.
 ECPInt:  NShTT=    6903 NPrTT=   30269 LenC2=    6742 LenP2D=   23275.
 LDataN:  DoStor=T MaxTD1= 9 Len=  602
 NBasis=   373 RedAO= T EigKep=  4.37D-06  NBF=   373
 NBsUse=   373 1.00D-06 EigRej= -1.00D+00 NBFU=   373
 Defaulting to unpruned grid for atomic number  80.
 Initial guess from the checkpoint file:  "vdw_rscan_hgc.chk"
 B after Tr=     0.000000    0.000000    0.000000
         Rot=    0.999976    0.000217    0.000154   -0.006993 Ang=   0.80 deg.
 Initial guess <Sx>= 0.0000 <Sy>= 0.0000 <Sz>= 0.5000 <S**2>= 0.7569 S= 0.5034
 ExpMin= 1.28D-02 ExpMax= 1.53D+04 ExpMxC= 5.22D+02 IAcc=3 IRadAn=         5 AccDes= 0.00D+00
 Harris functional with IExCor=  908 and IRadAn=       5 diagonalized for initial guess.
 HarFok:  IExCor=  908 AccDes= 0.00D+00 IRadAn=         5 IDoV= 1 UseB2=F ITyADJ=14
 ICtDFT=  3500011 ScaDFX=  1.000000  1.000000  1.000000  1.000000
 Defaulting to unpruned grid for atomic number  80.
 Defaulting to unpruned grid for atomic number  80.
 Defaulting to unpruned grid for atomic number  80.
 Defaulting to unpruned grid for atomic number  80.
 FoFCou: FMM=F IPFlag=           0 FMFlag=      100000 FMFlg1=           0
         NFxFlg=           0 DoJE=T BraDBF=F KetDBF=T FulRan=T
         wScrn=  0.000000 ICntrl=     500 IOpCl=  0 I1Cent=   200000004 NGrid=           0
         NMat0=    1 NMatS0=      1 NMatT0=    0 NMatD0=    1 NMtDS0=    0 NMtDT0=    0
 Petite list used in FoFCou.
 Requested convergence on RMS density matrix=1.00D-08 within 128 cycles.
 Requested convergence on MAX density matrix=1.00D-06.
 Requested convergence on             energy=1.00D-06.
 No special actions if energy rises.
 Defaulting to unpruned grid for atomic number  80.
 Defaulting to unpruned grid for atomic number  80.
 Defaulting to unpruned grid for atomic number  80.
 Defaulting to unpruned grid for atomic number  80.
 SCF Done:  E(UmPW1PW91) =  -724.288461986     A.U. after   12 cycles
            NFock= 12  Conv=0.53D-08     -V/T= 2.4519
 <Sx>= 0.0000 <Sy>= 0.0000 <Sz>= 0.5000 <S**2>= 0.7569 S= 0.5034
 <L.S>= 0.000000000000E+00
 Annihilation of the first spin contaminant:
 S**2 before annihilation     0.7569,   after     0.7500
   1 Symmetry operations used in ECPInt.
 ECPInt:  NShTT=    6903 NPrTT=   30269 LenC2=    6742 LenP2D=   23275.
 LDataN:  DoStor=T MaxTD1=10 Len=  848
 Calling FoFJK, ICntrl=      2127 FMM=F ISym2X=0 I1Cent= 0 IOpClX= 1 NMat=1 NMatS=1 NMatT=0.
 Defaulting to unpruned grid for atomic number  80.
 Defaulting to unpruned grid for atomic number  80.
 Defaulting to unpruned grid for atomic number  80.
 Defaulting to unpruned grid for atomic number  80.
 ***** Axes restored to original set *****
 -------------------------------------------------------------------
 Center     Atomic                   Forces (Hartrees/Bohr)
 Number     Number              X              Y              Z
 -------------------------------------------------------------------
      1       35           0.000001425    0.000025662   -0.000025186
      2       80          -0.000141727   -0.000014072    0.000014977
      3        8          -0.000030871    0.000263679   -0.000058408
      4        1           0.000009248   -0.000009763    0.000008503
      5        6           0.000128283   -0.000311882    0.000087344
      6        1          -0.000019773   -0.000009950    0.000018727
      7        6           0.000039740    0.000086681   -0.000030707
      8        1           0.000005003   -0.000043332   -0.000006515
      9        1           0.000008672    0.000012977   -0.000008736
 -------------------------------------------------------------------
 Cartesian Forces:  Max     0.000311882 RMS     0.000092385

 GradGradGradGradGradGradGradGradGradGradGradGradGradGradGradGradGradGrad
 Berny optimization.
 FormGI is forming the generalized inverse of G from B-inverse, IUseBI=4.
 Internal  Forces:  Max     0.000593078 RMS     0.000143938
 Search for a local minimum.
 Step number   1 out of a maximum of   50 on scan point    18 out of    31
 All quantities printed in internal units (Hartrees-Bohrs-Radians)
 Mixed Optimization -- RFO/linear search
 Second derivative matrix not updated -- first step.
 ITU=  0
     Eigenvalues ---    0.00028   0.00058   0.00270   0.01668   0.02562
     Eigenvalues ---    0.02874   0.03670   0.03762   0.06042   0.06959
     Eigenvalues ---    0.08215   0.10618   0.12843   0.14381   0.19414
     Eigenvalues ---    0.35613   0.36058   0.36142   0.36358   0.66593
     Eigenvalues --- 1000.000001000.000001000.000001000.000001000.00000
     Eigenvalues --- 1000.000001000.000001000.000001000.000001000.00000
     Eigenvalues --- 1000.000001000.000001000.00000
 RFO step:  Lambda=-2.84486499D-05 EMin= 2.78696425D-04
 Linear search not attempted -- first point.
 Maximum step size (   0.050) exceeded in Quadratic search.
    -- Step size scaled by   0.669
 Iteration  1 RMS(Cart)=  0.03177135 RMS(Int)=  0.00049532
 Iteration  2 RMS(Cart)=  0.00053139 RMS(Int)=  0.00011732
 Iteration  3 RMS(Cart)=  0.00000010 RMS(Int)=  0.00011732
 Iteration  1 RMS(Cart)=  0.00000000 RMS(Int)=  0.00000000
 Variable       Old X    -DE/DX   Delta X   Delta X   Delta X     New X
                                 (Linear)    (Quad)   (Total)
    R1        4.49595   0.00002   0.00000  -0.00016  -0.00016   4.49580
    R2        3.72900  -0.00006   0.00000  -0.00003  -0.00003   3.72897
    R3        9.70807  -0.00033   0.00000   0.00000   0.00000   9.70807
    R4        2.04594  -0.00001   0.00000  -0.00001  -0.00001   2.04593
    R5        2.04572  -0.00002   0.00000   0.00001   0.00001   2.04573
    R6        2.50016  -0.00006   0.00000  -0.00007  -0.00007   2.50010
    R7        2.04639  -0.00003   0.00000  -0.00001  -0.00001   2.04638
    R8        2.04605  -0.00001   0.00000   0.00010   0.00010   2.04615
    A1        1.90680   0.00021   0.00000   0.01770   0.01770   1.92450
    A2        1.24229  -0.00059   0.00000  -0.01792  -0.01792   1.22438
    A3        1.55423   0.00002   0.00000  -0.01535  -0.01519   1.53904
    A4        2.24344   0.00004   0.00000   0.03659   0.03641   2.27985
    A5        0.95751  -0.00008   0.00000  -0.01567  -0.01541   0.94210
    A6        2.03555   0.00000   0.00000  -0.00018  -0.00021   2.03534
    A7        2.12294  -0.00003   0.00000  -0.00033  -0.00062   2.12233
    A8        2.12468   0.00003   0.00000   0.00051   0.00083   2.12551
    A9        2.11865   0.00007   0.00000  -0.00004  -0.00004   2.11861
   A10        2.12785  -0.00005   0.00000  -0.00024  -0.00024   2.12760
   A11        2.03669  -0.00002   0.00000   0.00028   0.00028   2.03697
   A12        3.14909  -0.00039   0.00000  -0.00021  -0.00021   3.14888
   A13        3.14272   0.00002   0.00000   0.00027   0.00027   3.14299
    D1        1.74582   0.00001   0.00000  -0.01318  -0.01328   1.73254
    D2       -0.41924  -0.00002   0.00000  -0.01732  -0.01743  -0.43667
    D3       -2.25482   0.00001   0.00000   0.01071   0.01092  -2.24390
    D4       -1.39689  -0.00001   0.00000  -0.01345  -0.01355  -1.41045
    D5        2.72123  -0.00005   0.00000  -0.01759  -0.01770   2.70352
    D6        0.88565  -0.00001   0.00000   0.01044   0.01065   0.89630
    D7        2.05227   0.00001   0.00000   0.04065   0.04066   2.09294
    D8       -1.09265   0.00002   0.00000   0.04028   0.04029  -1.05236
    D9       -3.13518  -0.00002   0.00000  -0.00031  -0.00030  -3.13547
   D10        0.00309  -0.00001   0.00000  -0.00068  -0.00067   0.00242
   D11        0.00285   0.00000   0.00000  -0.00028  -0.00030   0.00255
   D12        3.14112   0.00001   0.00000  -0.00065  -0.00068   3.14044
         Item               Value     Threshold  Converged?
 Maximum Force            0.000593     0.000450     NO 
 RMS     Force            0.000134     0.000300     YES
 Maximum Displacement     0.103492     0.001800     NO 
 RMS     Displacement     0.031771     0.001200     NO 
 Predicted change in Energy=-1.276482D-05
 GradGradGradGradGradGradGradGradGradGradGradGradGradGradGradGradGradGrad

                          Input orientation:                          
 ---------------------------------------------------------------------
 Center     Atomic      Atomic             Coordinates (Angstroms)
 Number     Number       Type             X           Y           Z
 ---------------------------------------------------------------------
      1         35           0        2.714087   -0.649045   -0.503894
      2         80           0        0.509741   -1.173355    0.221331
      3          8           0       -1.313539   -1.620232    0.829448
      4          1           0       -2.979520    2.270995   -1.559746
      5          6           0       -2.644092    2.783416   -0.666961
      6          1           0       -2.437353    3.841617   -0.763847
      7          6           0       -2.498696    2.147537    0.484053
      8          1           0       -2.168321    2.664683    1.376287
      9          1           0       -2.705919    1.089431    0.583398
 ---------------------------------------------------------------------
                    Distance matrix (angstroms):
                    1          2          3          4          5
     1  Br   0.000000
     2  Hg   2.379074   0.000000
     3  O    4.352330   1.973285   0.000000
     4  H    6.485261   5.216389   4.860596   0.000000
     5  C    6.365411   5.137290   4.837533   1.082660   0.000000
     6  H    6.838929   5.899651   5.799426   1.842351   1.082552
     7  C    5.997501   4.488657   3.964843   2.103223   1.322994
     8  H    6.193043   4.820422   4.403429   3.071372   2.101266
     9  H    5.794909   3.948640   3.056393   2.462523   2.106373
                    6          7          8          9
     6  H    0.000000
     7  C    2.104976   0.000000
     8  H    2.457178   1.082899   0.000000
     9  H    3.075992   1.082775   1.843666   0.000000
 Stoichiometry    C2H4BrHgO(2)
 Framework group  C1[X(C2H4BrHgO)]
 Deg. of freedom    21
 Full point group                 C1      NOp   1
 Largest Abelian subgroup         C1      NOp   1
 Largest concise Abelian subgroup C1      NOp   1
                         Standard orientation:                         
 ---------------------------------------------------------------------
 Center     Atomic      Atomic             Coordinates (Angstroms)
 Number     Number       Type             X           Y           Z
 ---------------------------------------------------------------------
      1         35           0        1.865441    1.122661    0.026932
      2         80           0        0.164188   -0.539799   -0.017334
      3          8           0       -1.237010   -1.928828   -0.050440
      4          1           0       -4.439544    1.446338   -1.456649
      5          6           0       -4.463239    1.659233   -0.395392
      6          1           0       -4.800226    2.646511   -0.106187
      7          6           0       -4.102022    0.755846    0.501117
      8          1           0       -4.132393    0.970612    1.562071
      9          1           0       -3.765671   -0.232525    0.214079
 ---------------------------------------------------------------------
 Rotational constants (GHZ):      1.8453688      0.6107123      0.4670773
 Basis read from rwf:  (5D, 7F)
 Pseudo-potential data read from rwf file.
 There are   444 symmetry adapted cartesian basis functions of A   symmetry.
 There are   373 symmetry adapted basis functions of A   symmetry.
   373 basis functions,   738 primitive gaussians,   444 cartesian basis functions
    35 alpha electrons       34 beta electrons
       nuclear repulsion energy       296.8633670250 Hartrees.
 NAtoms=    9 NActive=    9 NUniq=    9 SFac= 1.00D+00 NAtFMM=   60 NAOKFM=F Big=F
 Integral buffers will be    131072 words long.
 Raffenetti 2 integral format.
 Two-electron integral symmetry is turned on.
 One-electron integrals computed using PRISM.
   1 Symmetry operations used in ECPInt.
 ECPInt:  NShTT=    6903 NPrTT=   30269 LenC2=    6742 LenP2D=   23290.
 LDataN:  DoStor=T MaxTD1= 9 Len=  602
 NBasis=   373 RedAO= T EigKep=  4.30D-06  NBF=   373
 NBsUse=   373 1.00D-06 EigRej= -1.00D+00 NBFU=   373
 Defaulting to unpruned grid for atomic number  80.
 Initial guess from the checkpoint file:  "vdw_rscan_hgc.chk"
 B after Tr=     0.000000    0.000000    0.000000
         Rot=    0.999998   -0.000056   -0.000228    0.002150 Ang=  -0.25 deg.
 Initial guess <Sx>= 0.0000 <Sy>= 0.0000 <Sz>= 0.5000 <S**2>= 0.7569 S= 0.5034
 ExpMin= 1.28D-02 ExpMax= 1.53D+04 ExpMxC= 5.22D+02 IAcc=3 IRadAn=         5 AccDes= 0.00D+00
 Harris functional with IExCor=  908 and IRadAn=       5 diagonalized for initial guess.
 HarFok:  IExCor=  908 AccDes= 0.00D+00 IRadAn=         5 IDoV= 1 UseB2=F ITyADJ=14
 ICtDFT=  3500011 ScaDFX=  1.000000  1.000000  1.000000  1.000000
 Defaulting to unpruned grid for atomic number  80.
 Defaulting to unpruned grid for atomic number  80.
 Defaulting to unpruned grid for atomic number  80.
 Defaulting to unpruned grid for atomic number  80.
 FoFCou: FMM=F IPFlag=           0 FMFlag=      100000 FMFlg1=           0
         NFxFlg=           0 DoJE=T BraDBF=F KetDBF=T FulRan=T
         wScrn=  0.000000 ICntrl=     500 IOpCl=  0 I1Cent=   200000004 NGrid=           0
         NMat0=    1 NMatS0=      1 NMatT0=    0 NMatD0=    1 NMtDS0=    0 NMtDT0=    0
 Petite list used in FoFCou.
 Requested convergence on RMS density matrix=1.00D-08 within 128 cycles.
 Requested convergence on MAX density matrix=1.00D-06.
 Requested convergence on             energy=1.00D-06.
 No special actions if energy rises.
 Defaulting to unpruned grid for atomic number  80.
 Defaulting to unpruned grid for atomic number  80.
 Defaulting to unpruned grid for atomic number  80.
 Defaulting to unpruned grid for atomic number  80.
 Restarting incremental Fock formation.
 Restarting incremental Fock formation.
 Restarting incremental Fock formation.
 Restarting incremental Fock formation.
 Restarting incremental Fock formation.
 Restarting incremental Fock formation.
 >>>>>>>>>> Convergence criterion not met.
 SCF Done:  E(UmPW1PW91) =  -724.288474249     A.U. after  129 cycles
            NFock=128  Conv=0.42D-05     -V/T= 2.4519
 <Sx>= 0.0000 <Sy>= 0.0000 <Sz>= 0.5000 <S**2>= 0.7569 S= 0.5034
 <L.S>= 0.000000000000E+00
 Annihilation of the first spin contaminant:
 S**2 before annihilation     0.7569,   after     0.7500
 Convergence failure -- run terminated.
 Error termination via Lnk1e in /usr/local/share//g09/l502.exe at Sat Dec  1 11:23:27 2018.
 Job cpu time:      10 days 21 hours  6 minutes  2.4 seconds.
 File lengths (MBytes):  RWF=    208 Int=      0 D2E=      0 Chk=     17 Scr=      1
